ITEM: TIMESTEP
60000
ITEM: NUMBER OF ATOMS
16000
ITEM: BOX BOUNDS pp pp pp
-1.3300573168565002e+01 1.3300573168565002e+01
-1.3300573168565002e+01 1.3300573168565002e+01
-1.3300573168565002e+01 1.3300573168565002e+01
ITEM: ATOMS id type x y z xu yu zu vx vy vz
3198 1 -12.8125 -12.8624 -12.0344 -12.8125 40.3399 41.1679 -0.179579 2.20111 1.02361
590 1 -12.4088 -12.2113 -12.6951 14.1923 -38.8124 13.906 0.451746 0.389598 -0.962298
13458 1 -10.6943 -12.4722 -13.1242 -10.6943 -12.4722 40.0781 -0.464932 -0.434614 -0.315031
13457 1 -10.9912 -12.4039 -12.2403 -10.9912 -12.4039 40.962 -0.713586 1.67671 0.499997
11557 1 -9.69192 -12.1733 -12.7822 -9.69192 -38.7744 67.0212 -1.18696 1.60743 0.650902
2883 1 -8.77748 -12.4576 -12.4092 -35.3786 -39.0588 93.9953 -0.878585 -1.13329 0.833213
2884 1 -8.74997 -13.297 -11.9907 -35.3511 -39.8982 94.4139 -0.316859 -0.520082 -0.543614
9405 1 -7.3307 -12.2874 -12.7246 -7.3307 -65.4897 -12.7246 -0.468653 0.650607 1.19835
11375 1 -12.63 -10.8738 -12.1391 13.9711 42.3285 -12.1391 3.03612 -0.870337 1.52782
11513 1 -11.7777 -11.5104 -12.2535 -11.7777 -38.1115 -38.8547 0.358868 1.46222 1.50121
2108 1 -11.1078 -11.3153 -13.1907 15.4933 -37.9165 -39.7918 0.555751 -0.130014 1.44
2107 1 -10.6332 -11.0315 -12.3418 15.968 -37.6327 -38.943 -0.0764447 -0.856002 0.968871
5449 1 -8.08415 -11.7303 -12.1002 18.517 -38.3315 14.5009 0.140911 1.35717 -0.930462
8944 1 -9.14867 -11.4197 -12.2979 17.4525 -11.4197 14.3032 -0.715922 1.06184 0.204753
4220 1 -8.25446 -11.521 -13.2108 -8.25446 -38.1222 13.3904 0.32029 -0.294133 -0.673615
4219 1 -7.35134 -11.2343 -12.8103 -7.35134 -37.8354 13.7908 -0.934979 2.06925 -1.01063
11376 1 -12.4275 -10.3796 -12.8755 14.1736 42.8227 -12.8755 1.59864 -0.243183 -0.154573
11289 1 -13.0289 -9.85447 -12.1689 40.1734 -63.0568 14.4322 0.000977518 -0.593442 0.332618
13415 1 -11.7628 -9.43835 -12.51 14.8384 17.1628 -65.7123 1.55358 -0.506128 0.832673
13416 1 -11.2496 -10.2586 -12.5483 15.3515 16.3425 -65.7506 -0.0471808 -0.485673 0.108576
13543 1 -10.1698 -10.2375 -13.1482 -10.1698 16.3636 -39.7494 -0.0347723 -0.810193 1.83104
15448 1 -9.57622 -9.54037 -12.0251 17.0249 -9.54037 14.5761 -0.0549189 -0.42671 0.257838
15447 1 -9.4369 -10.3713 -12.5056 17.1642 -10.3713 14.0955 1.8872 -1.745 -0.380502
2009 1 -8.64286 -9.67726 -12.5139 -8.64286 16.9239 40.6884 2.44413 1.79973 1.60049
2010 1 -8.46754 -10.3211 -13.2691 -8.46754 16.28 39.9332 1.26416 0.28474 0.349655
13503 1 -7.02006 -9.95794 -13.2631 -7.02006 -9.95794 13.338 -0.848875 -0.48452 0.618624
11093 1 -12.3517 -9.00847 -13.1986 -12.3517 17.5927 -13.1986 0.13987 0.024653 1.17083
11094 1 -12.3419 -8.34342 -12.5025 -12.3419 18.2577 -12.5025 -1.1417 1.46291 0.393786
4678 1 -11.3635 -8.14862 -12.2142 15.2376 -61.3509 -12.2142 1.55009 -0.942671 -0.48225
4050 1 -11.1173 -8.64598 -13.1346 -37.7184 -8.64598 66.6688 0.061266 -0.0426394 -0.647511
12099 1 -10.2727 -9.16692 -12.6106 -36.8738 -62.3692 40.5917 -0.0341417 -0.438375 -0.362731
12100 1 -9.48125 -8.57577 -12.7996 -36.0824 -61.7781 40.4027 -1.40378 0.219406 -0.657682
8684 1 -8.39916 -7.99224 -12.878 -35.0003 -34.5934 13.7231 0.291446 -1.2539 -2.19914
6950 1 -7.37415 -8.42508 -13.2469 19.227 -35.0262 13.3542 -0.968181 -0.803005 -1.70737
6949 1 -7.93893 -9.05751 -12.873 18.6622 -35.6587 13.7282 -1.28952 0.139727 0.732251
6181 1 -13.2666 -6.81864 -13.1889 13.3346 -6.81864 -13.1889 -1.82388 -0.0894432 0.635842
6182 1 -12.5347 -6.83215 -12.5232 14.0665 -6.83215 -12.5232 -0.199197 0.177559 0.667244
6403 1 -12.998 -7.8633 -13.2476 13.6032 -7.8633 13.3535 0.948362 -0.881393 1.23281
13445 1 -11.9544 -7.61183 -13.0559 -11.9544 18.9893 40.1464 0.694207 0.733843 0.392832
13446 1 -11.3967 -7.09108 -12.4711 -11.3967 19.5101 40.7312 -0.0327799 -0.424488 -0.710918
11858 1 -10.351 -7.56105 -12.3905 -10.351 45.6412 -12.3905 -0.645736 -0.943634 0.54478
11857 1 -9.63044 -7.4282 -13.0628 -9.63044 45.7741 -13.0628 -0.263425 0.625712 -1.41757
10491 1 -9.18702 -7.48709 -12.0543 -62.3893 45.7152 14.5469 1.71937 0.916654 0.324516
15578 1 -7.87714 -7.32472 -12.0839 -7.87714 -7.32472 41.1184 1.20681 -0.0262944 0.960206
15296 1 -6.82526 -6.91679 -12.89 -60.0276 46.2855 13.7111 -0.550244 -0.603065 0.955993
11161 1 -7.67693 -7.19357 -13.1978 18.9242 -7.19357 40.0045 -0.659659 -1.06363 -0.234852
3301 1 -12.6595 -13.0504 -11.0276 -12.6595 40.1519 15.5735 -0.707199 -0.349443 -1.0967
3197 1 -11.9068 -12.7229 -11.9629 -11.9068 40.4794 41.2394 0.330099 -1.31972 0.158335
12152 1 -11.6781 -12.3827 -10.8065 41.5242 -38.9838 -37.4077 -0.864807 -1.24094 -1.45638
5569 1 -9.86786 -12.1556 -11.7964 -36.469 -12.1556 -11.7964 -0.0343429 -0.146781 0.0623921
5570 1 -10.3889 -12.9222 -11.4951 -36.9901 -12.9222 -11.4951 0.108338 -0.7783 -1.35693
13470 1 -8.34208 -12.9899 -11.1256 -8.34208 -12.9899 -37.7267 0.733446 0.211411 1.09921
5489 1 -7.34916 -12.122 -10.7739 -7.34916 -38.7232 -10.7739 0.08224 0.747554 0.410768
9964 1 -6.74823 -12.9981 -11.1541 19.8529 -12.9981 15.4471 0.206219 -0.190016 -1.44854
13469 1 -7.58109 -12.5809 -11.6076 -7.58109 -12.5809 -38.2087 0.836498 0.721162 -0.942354
1371 1 -12.4095 -11.9156 -11.6225 -12.4095 14.6855 -11.6225 0.344984 -1.90954 0.787197
1372 1 -12.2914 -11.6171 -10.7599 -12.2914 14.984 -10.7599 -1.3431 -1.388 -0.867705
15100 1 -10.8889 -11.6273 -11.5759 -37.4901 -11.6273 -11.5759 1.48848 0.972209 -0.500719
11514 1 -11.6772 -11.0164 -11.4126 -11.6772 -37.6175 -38.0137 0.973582 1.67633 -1.04666
15099 1 -10.3136 -10.9392 -11.209 -36.9147 -10.9392 -11.209 0.709487 -0.372969 0.0746298
5825 1 -9.51229 -11.9328 -10.8226 43.69 14.6683 -10.8226 -1.40853 1.7773 -1.62305
5450 1 -8.63524 -11.7038 -11.2807 17.9659 -38.305 15.3205 -1.63697 0.731456 -0.182537
8943 1 -9.26502 -10.6668 -11.5604 17.3361 -10.6668 15.0407 0.914795 -0.521187 -0.11826
3017 1 -8.24761 -10.7487 -11.7597 -8.24761 -37.3499 14.8414 -0.263831 -0.930277 -0.514359
3018 1 -7.7057 -11.2908 -11.1604 -7.7057 -37.892 15.4408 -1.49951 -0.336521 0.787223
10702 1 -6.75582 -11.2321 -11.5762 19.8453 15.3691 15.0249 0.516412 -0.714932 -1.00724
9010 1 -12.4072 -9.49539 -11.3805 14.1939 17.1058 -37.9816 -0.705577 1.49798 -1.41836
13604 1 -13.0783 -9.79752 -10.6954 40.124 43.4048 15.9058 0.407957 -1.87746 0.177238
9009 1 -12.619 -10.3749 -11.2887 13.9822 16.2262 -37.8898 -1.34242 -0.171694 -1.32488
7914 1 -11.4135 -9.90013 -11.5875 -11.4135 -63.1024 15.0137 0.347563 -0.273091 -0.147448
6348 1 -10.9813 -10.2532 -10.7457 -37.5824 16.348 15.8554 0.630313 -0.312646 -1.251
9915 1 -9.96106 -9.90359 -11.0895 16.6401 -9.90359 -11.0895 0.056736 1.30821 -0.820167
9916 1 -10.3816 -10.1616 -11.9284 16.2195 -10.1616 -11.9284 -0.218341 -0.379829 1.27482
5885 1 -8.14407 -10.1439 -10.7827 18.4571 16.4572 15.8185 0.402268 0.340323 2.53161
4584 1 -6.72222 -9.43269 -11.684 19.8789 -36.0338 14.9172 -0.447274 0.0483102 1.60316
4583 1 -7.37566 -10.0222 -11.4576 19.2255 -36.6233 15.1435 -0.111174 -0.127608 -0.787991
2673 1 -12.7262 -8.33554 -11.5802 13.875 -8.33554 -11.5802 0.779298 0.510658 -2.3723
7913 1 -11.0494 -9.08122 -11.8383 -11.0494 -62.2835 14.7628 0.877089 0.700124 -1.36746
4677 1 -11.5947 -8.34711 -11.323 15.0064 -61.5494 -11.323 -0.511084 0.0958355 0.35615
480 1 -10.0349 -8.95216 -11.3213 43.1674 17.649 41.881 0.588904 -0.246368 -0.856338
338 1 -8.14937 -8.58962 -11.9183 45.0529 -35.1908 -65.1205 0.689574 1.47999 -0.207284
3845 1 -9.2675 -8.47242 -11.8562 -35.8686 -8.47242 -11.8562 -0.991053 1.50839 -0.220425
3794 1 -8.63699 -9.27713 -11.1727 -61.8393 70.5263 15.4285 1.4153 -1.03787 1.10608
337 1 -7.20697 -8.4903 -11.9688 45.9953 -35.0914 -65.1711 0.0947205 -0.00475294 0.882788
9814 1 -7.52691 -8.36519 -10.7 45.6754 44.8371 -10.7 1.23764 1.17687 -1.15238
2674 1 -12.1749 -7.6269 -11.8215 14.4262 -7.6269 -11.8215 1.61465 -1.65837 -2.55512
6203 1 -12.7822 -6.80186 -11.2348 13.8189 46.4004 68.5687 -0.811986 0.0165012 0.0979584
1886 1 -10.7364 -7.93805 -11.3459 -37.3375 -7.93805 -11.3459 -1.98947 1.8165 1.22535
14946 1 -11.5585 -6.94604 -11.1458 -11.5585 19.6551 -11.1458 1.6913 -2.71166 -0.656013
3846 1 -9.39213 -7.94779 -11.0688 -35.9933 -7.94779 -11.0688 -1.35155 -0.0701095 0.613481
10492 1 -9.98803 -7.21638 -11.4425 -63.1903 45.9859 15.1586 2.3577 0.00960758 -0.590021
15577 1 -8.29069 -7.6862 -11.2903 -8.29069 -7.6862 41.912 0.767067 -1.00053 0.369343
2290 1 -8.46896 -6.69086 -11.4365 18.1322 -33.292 -11.4365 1.31926 -0.467585 -1.28473
14314 1 -6.97511 -7.51536 -11.7282 -86.7785 -34.1165 -38.3294 -0.60659 0.399275 -1.23949
14313 1 -7.26019 -6.77327 -11.293 -87.0636 -33.3744 -37.8942 -0.0406136 0.933562 -0.393442
13858 1 -12.9097 -12.1801 -10.0944 13.6914 41.0222 43.1079 -0.685592 -1.15582 0.205714
4918 1 -12.1778 -12.9633 -10.1153 14.4234 -39.5644 16.4858 1.68142 0.747091 -0.58587
4917 1 -11.2656 -12.9098 -10.0238 15.3355 -39.511 16.5774 -1.18336 0.223337 1.59483
869 1 -10.9273 -12.1528 -9.38885 -64.1296 14.4483 17.2123 1.7227 0.136288 0.0501657
13887 1 -10.5473 -12.1516 -10.5871 -37.1485 14.4495 -10.5871 1.38822 0.331543 1.18509
9360 1 -9.81178 -12.7642 -9.79429 -9.81178 13.837 16.8069 0.264498 0.648268 1.78459
6145 1 -10.4036 -13.1989 -10.532 42.7987 40.0034 42.6703 -0.334749 0.45526 -0.220328
12838 1 -8.69747 -12.4607 -9.47875 -35.2986 14.1404 -9.47875 -1.29607 -1.24149 -0.930559
12837 1 -8.01003 -12.9972 -9.79217 -34.6112 13.604 -9.79217 0.0350405 1.37477 0.210907
5490 1 -8.16636 -12.1109 -10.3016 -8.16636 -38.712 -10.3016 1.14425 0.449221 -0.682962
9359 1 -9.01153 -13.1435 -10.0653 -9.01153 13.4576 16.5358 0.147338 2.1532 -0.899379
15091 1 -6.6711 -12.4976 -9.89186 -33.2722 14.1036 16.7093 -1.96092 -1.33157 -1.65392
1882 1 -12.4053 -10.7864 -10.0965 14.1958 15.8148 -10.0965 -0.350382 -0.245103 1.47313
12151 1 -11.779 -11.9483 -9.95052 41.4233 -38.5495 -36.5517 2.40535 0.0724004 0.606226
13888 1 -11.0279 -11.4085 -10.39 -37.629 15.1926 -10.39 1.18455 0.668776 0.987901
3023 1 -10.5342 -11.2574 -9.41232 -37.1353 -11.2574 -9.41232 0.193527 -0.157268 -1.24712
7715 1 -9.58549 -10.8894 -10.3672 -9.58549 15.7118 42.8351 0.104255 2.47347 0.157028
5826 1 -9.0716 -11.7742 -9.99269 44.1307 14.827 -9.99269 2.20478 -0.149756 0.456028
5886 1 -8.38104 -10.9892 -10.3006 18.2201 15.6119 16.3006 -0.914254 -0.946376 1.18651
15092 1 -7.21095 -11.6352 -9.94323 -33.8121 14.9659 16.6579 1.28254 -1.3428 -0.839563
13353 1 -6.86858 -10.9013 -9.36158 -6.86858 15.6999 -35.9627 -1.25513 0.803622 -1.06481
11669 1 -12.1678 -10.0001 -9.33962 -38.769 -10.0001 -35.9408 2.49164 -0.583012 -0.235389
1881 1 -11.9445 -9.97499 -10.3388 14.6566 16.6262 -10.3388 -0.0438128 1.09341 -0.902951
7513 1 -11.2094 -10.3162 -9.71493 -11.2094 -10.3162 16.8862 -1.05592 1.15723 -0.350862
6347 1 -11.1424 -9.34104 -10.4074 -37.7435 17.2601 16.1938 0.232614 -0.222397 0.490341
9579 1 -10.2076 -9.90386 -9.95493 -10.2076 43.2984 43.2474 -0.147919 1.10724 2.07774
7716 1 -9.02291 -10.1461 -10.2368 -9.02291 16.455 42.9655 0.134613 0.948005 -1.16257
8291 1 -8.20548 -9.57163 -9.86121 -8.20548 -9.57163 -36.4624 -0.217778 -1.03805 -0.112672
9798 1 -8.02279 -10.5399 -9.45847 -8.02279 -37.141 -36.0596 0.607286 -1.00764 -1.95208
7984 1 -6.83766 -9.92118 -9.82665 -33.4388 -9.92118 -9.82665 -1.69886 -1.2406 -0.293721
7983 1 -7.34497 -10.5573 -10.2955 -33.9461 -10.5573 -10.2955 0.0256209 -0.0130584 1.38977
9826 1 -12.2569 -8.91375 -10.5212 -12.2569 -8.91375 16.0799 1.28815 -0.15263 -0.0706063
9825 1 -12.7832 -8.4215 -9.87299 -12.7832 -8.4215 16.7282 -0.345194 -0.534536 0.254232
11264 1 -11.6962 -8.11389 -9.53096 14.905 18.4873 -36.1321 0.089776 0.561335 -0.556004
479 1 -9.44983 -9.00808 -10.5498 43.7525 17.5931 42.6525 1.28282 0.87157 -0.223334
1885 1 -10.5674 -8.39135 -10.5473 -37.1686 -8.39135 -10.5473 -2.69842 1.4273 1.8328
9580 1 -10.5769 -9.06707 -9.61922 -10.5769 44.1352 43.5831 0.0671154 0.458788 0.0223125
4028 1 -9.46393 -8.1433 -10.0505 -9.46393 -8.1433 16.5506 -0.589096 0.331065 -0.14402
3793 1 -8.50178 -8.53346 -10.5586 -61.7041 71.27 16.0425 0.467163 1.55685 -0.0248328
10234 1 -8.00038 -8.48881 -9.40052 18.6008 -8.48881 70.4029 -1.20624 0.235195 0.50203
10233 1 -8.81875 -8.93834 -9.49819 17.7824 -8.93834 70.3053 0.549044 -1.10982 -0.571369
9813 1 -7.53339 -9.21084 -10.4788 45.6689 43.9915 -10.4788 -0.366655 -0.799409 -1.22723
2428 1 -7.00189 -8.61968 -9.87818 -7.00189 -8.61968 -36.4793 0.874209 1.59336 -0.160304
1834 1 -12.5415 -7.44903 -9.66432 14.0597 -7.44903 -36.2655 1.0569 -0.554386 -0.296669
1833 1 -12.4141 -7.74174 -10.5517 14.1871 -7.74174 -37.1528 2.97886 -0.647476 -0.0666472
11263 1 -11.4138 -7.72515 -10.309 15.1874 18.876 -36.9101 1.48792 1.50903 1.24256
14443 1 -10.7106 -7.73899 -9.39994 -10.7106 -7.73899 -36.0011 -0.868289 0.468712 -0.746661
10444 1 -11.8759 -6.86853 -10.0733 14.7253 -33.4697 43.129 1.23195 -0.341372 -0.107924
2086 1 -10.8336 -6.8332 -9.7548 15.7676 46.3691 -89.5582 -0.240663 -0.484953 3.75169
2085 1 -10.488 -7.23153 -10.5792 16.1131 45.9708 -90.3826 -1.3478 0.272462 -0.501797
12856 1 -9.468 -7.17137 -10.429 -62.6703 -33.7725 42.7733 0.446985 1.05582 0.472361
12855 1 -9.70205 -7.33314 -9.50676 -62.9043 -33.9343 43.6955 1.54473 -0.859414 0.401483
14112 1 -8.13119 -7.32406 -9.88002 45.0711 19.2771 16.7211 0.00429492 -0.408557 2.77217
14111 1 -8.7762 -7.72647 -9.32531 44.4261 18.8747 17.2758 -0.6776 0.918444 1.17944
10914 1 -6.96562 -7.339 -10.4884 46.2367 -33.9401 -37.0895 0.138179 -0.614414 1.50457
13930 1 -12.531 -13.0883 -8.54096 -12.531 13.5128 44.6613 0.209558 -0.375311 -0.405536
12608 1 -12.329 -12.0048 -9.09702 14.2721 14.5964 17.5041 1.62777 0.0340034 -0.931522
808 1 -10.766 -13.275 -9.02452 42.4363 39.9273 44.1778 -1.57039 0.785427 -0.721987
870 1 -11.2986 -12.4461 -8.58252 -64.5009 14.1551 18.0186 0.0456421 -0.750988 -0.684008
12626 1 -9.34836 -12.9826 -8.81587 -62.5507 13.6185 -62.0182 -0.223218 0.631711 -0.427265
12625 1 -10.1175 -12.4683 -8.67419 -63.3198 14.1329 -61.8765 1.67151 0.51514 -1.17613
14025 1 -9.34241 -12.1306 -8.11116 -9.34241 14.4705 -8.11116 0.57571 -0.711583 0.916448
2042 1 -8.59698 -12.9721 -8.1385 -8.59698 66.8313 18.4626 -0.748042 0.224592 0.650649
1023 1 -6.70422 -13.1503 -8.51663 46.4981 13.4509 -8.51663 0.770691 0.872049 -0.437662
8339 1 -7.71685 -12.007 -8.10458 18.8843 -12.007 -34.7057 -2.13651 -1.06849 -0.0651843
1024 1 -7.68245 -13.2957 -8.61001 45.5198 13.3054 -8.61001 1.87443 1.34205 -0.567333
8340 1 -7.23104 -12.2304 -8.90424 19.3701 -12.2304 -35.5054 -0.125917 -0.409593 -1.83189
12607 1 -12.854 -11.2416 -9.16278 13.7471 15.3596 17.4384 -0.112207 -1.5037 -1.56646
10396 1 -12.7578 -10.6737 -8.3 -12.7578 15.9275 -8.3 0.355949 0.489656 0.618071
15435 1 -13.1157 -11.5534 -8.15384 13.4854 15.0477 -61.3561 -0.67775 -1.01901 -0.171538
1444 1 -10.825 -11.5703 -8.39917 15.7762 -38.1715 -8.39917 0.208231 0.519058 0.782906
7514 1 -11.549 -11.1231 -9.13698 -11.549 -11.1231 17.4642 -0.116483 0.446599 -1.81263
2555 1 -11.838 -11.3987 -8.08691 -11.838 -11.3987 71.7165 2.01614 0.0895287 -0.546545
14647 1 -9.63959 -11.359 -8.79528 -9.63959 15.2421 17.8059 -1.02277 -0.633726 1.62043
7225 1 -9.00085 -10.7151 -9.30354 17.6003 42.4872 17.2976 0.76014 -0.582296 0.0531945
14026 1 -8.72796 -11.3952 -8.2689 -8.72796 15.2059 -8.2689 1.45787 -0.0630145 -0.924898
9797 1 -8.04117 -11.5432 -9.13084 -8.04117 -38.1443 -35.732 -0.407676 -0.9666 1.83708
13354 1 -6.98751 -11.0396 -8.43482 -6.98751 15.5616 -35.036 0.201523 1.27512 0.0716978
3755 1 -13.2135 -10.1738 -9.10309 -13.2135 69.6297 -35.7042 -0.515502 0.713571 0.255768
3756 1 -12.671 -9.61465 -8.50961 -12.671 70.1888 -35.1108 -1.02198 -1.10493 0.287414
1233 1 -11.0757 -9.45382 -8.76676 15.5255 -9.45382 -8.76676 -1.20395 -0.538384 0.286342
11670 1 -11.8113 -10.2107 -8.42035 -38.4125 -10.2107 -35.0215 -1.49447 0.858475 -1.18705
3024 1 -10.1555 -10.4733 -9.10098 -36.7566 -10.4733 -9.10098 -0.797146 -0.788985 -1.89338
1234 1 -10.365 -9.91766 -8.21965 16.2362 -9.91766 -8.21965 -0.559729 -0.707779 0.558092
13159 1 -9.71213 -9.48249 -8.78141 -9.71213 17.1187 44.4209 -1.04142 2.71884 0.04315
7226 1 -9.19751 -10.3855 -8.41088 17.4036 42.8168 18.1903 0.416444 0.532808 1.74998
8292 1 -8.36 -9.69183 -8.92417 -8.36 -9.69183 -35.5253 -0.245996 1.63386 -0.630233
8604 1 -7.33199 -10.0309 -8.68472 19.2692 -63.2332 -8.68472 0.183296 0.972357 1.1404
8311 1 -12.2339 -8.88159 -9.14153 40.9684 -62.0839 -35.7427 -1.5917 -0.00683081 -1.45223
8312 1 -11.7734 -8.65987 -8.3974 41.4289 -61.8622 -34.9985 -0.500376 0.835811 0.153971
4027 1 -9.69283 -8.37587 -9.15244 -9.69283 -8.37587 17.4487 1.92032 1.15381 -1.82247
13160 1 -10.0663 -8.80125 -8.25502 -10.0663 17.7999 44.9473 -0.63309 1.44947 -1.41813
12418 1 -8.87091 -8.60478 -8.28202 -8.87091 -8.60478 18.3191 -2.1648 -0.436913 -1.0727
1414 1 -7.82589 -8.97094 -8.26554 18.7753 -35.5721 44.9368 -0.134944 0.287205 -0.743672
8603 1 -6.87945 -9.2023 -8.90974 19.7217 -62.4046 -8.90974 1.31999 -0.178324 -0.273008
5394 1 -12.1754 -7.72068 -8.51028 14.4258 -7.72068 -8.51028 -1.19111 0.383254 0.206945
1580 1 -13.2617 -7.89566 -9.00134 13.3395 18.7055 -62.2036 0.603764 0.325916 0.269888
5393 1 -11.6555 -7.14176 -9.00374 14.9456 -7.14176 -9.00374 -1.7018 1.73437 0.159157
14444 1 -10.5691 -7.65161 -8.47585 -10.5691 -7.65161 -35.077 -1.35931 1.31551 0.235115
9343 1 -9.49871 -7.33048 -8.3239 96.9059 45.8718 -34.925 -0.723863 0.214443 0.272658
5375 1 -8.15473 -7.89061 -8.58155 18.4464 -34.4918 18.0196 -0.412079 -0.924712 0.100749
1890 1 -6.77853 -6.97387 -8.85389 19.8226 -6.97387 -8.85389 -0.923896 -0.0301936 0.555589
2427 1 -7.1576 -7.93368 -9.16417 -7.1576 -7.93368 -35.7653 -0.795672 1.10902 -1.33025
5376 1 -7.76642 -7.09479 -8.943 18.8347 -33.6959 17.6581 0.491235 0.258575 0.41572
1889 1 -7.21487 -7.38898 -8.12269 19.3863 -7.38898 -8.12269 -0.877795 -0.0597742 -1.46362
3042 1 -12.3536 -11.9935 -6.8205 -38.9548 -11.9935 -6.8205 -1.13335 -1.47147 2.34858
12578 1 -12.7077 -12.5103 -7.6241 -65.91 -12.5103 18.977 0.946603 -0.688392 0.0463964
5093 1 -10.7697 -12.9727 -7.67854 -10.7697 13.6284 -34.2797 -0.855128 1.59456 -1.13165
2556 1 -11.4446 -12.0611 -7.5797 -11.4446 -12.0611 72.2237 -0.205048 0.719947 -1.76709
11415 1 -11.7696 -13.2566 -7.83463 41.4326 -39.8577 -7.83463 0.317836 2.39007 1.30747
8076 1 -11.1881 -12.9357 -6.6596 15.4131 40.2666 19.9415 -0.555856 1.16989 1.1177
14356 1 -9.69486 -12.2602 -6.81369 16.9063 -38.8613 -6.81369 -0.155465 1.03893 0.577072
1443 1 -10.3808 -11.9728 -7.61543 16.2204 -38.574 -7.61543 -0.411558 2.47724 0.164495
5094 1 -9.82236 -12.9993 -7.7403 -9.82236 13.6018 -34.3414 1.48125 -0.116505 1.80209
8200 1 -8.89717 -13.1351 -6.82034 17.704 -39.7363 -6.82034 -0.906876 0.653056 -1.39442
10762 1 -7.98932 -12.5222 -7.11814 -7.98932 40.6801 19.483 -0.930889 0.154984 -0.325447
9447 1 -6.66495 -13.1013 -6.77321 -6.66495 -13.1013 19.8279 -0.197233 -0.218883 0.152124
2730 1 -6.7902 -12.0939 -7.40655 73.0132 -12.0939 -7.40655 0.601714 -1.25339 0.118717
15436 1 -13.2102 -11.4886 -7.24448 13.3909 15.1125 -60.4468 0.541738 0.972685 -0.177676
10395 1 -12.3547 -10.771 -7.41625 -12.3547 15.8301 -7.41625 -0.144944 1.23188 -1.11866
6335 1 -11.4004 -11.2091 -7.01531 -64.6027 -11.2091 19.5858 1.19012 -1.80785 -0.306835
12454 1 -10.7697 -10.6995 -7.62833 -10.7697 -63.9017 -34.2295 -2.05366 -1.80009 -1.32741
14648 1 -9.85885 -11.1809 -7.88957 -9.85885 15.4202 18.7116 -0.935388 0.0805371 0.0204865
12324 1 -10.0734 -11.3422 -6.83008 16.5278 -11.3422 19.7711 -0.586837 -0.912753 0.580972
5939 1 -8.59241 -11.3987 -7.23766 -8.59241 -37.9998 -7.23766 1.65604 0.529971 1.98074
5940 1 -7.94265 -10.862 -6.752 -7.94265 -37.4631 -6.752 -0.408907 -0.33388 0.13038
2729 1 -7.1303 -11.3004 -7.08683 72.6731 -11.3004 -7.08683 -0.705605 -1.89929 0.701469
1540 1 -12.5546 -9.62984 -7.43786 -39.1557 16.9713 45.7644 0.23753 -0.491673 -0.936712
11671 1 -11.2414 -9.59412 -7.58105 15.3598 -9.59412 -7.58105 -0.74758 0.630439 0.314109
11672 1 -11.8033 -10.1061 -6.99196 14.7978 -10.1061 -6.99196 -1.96761 -0.420685 -0.853212
14293 1 -10.7971 -10.1635 -6.68926 -10.7971 16.4377 19.9119 1.32921 0.542364 -2.00457
12453 1 -9.9189 -10.4194 -7.23015 -9.9189 -63.6217 -33.8313 0.234249 1.68898 1.2674
12567 1 -10.3394 -9.38608 -7.23848 42.8629 17.2151 -7.23848 -0.33292 0.644599 0.826602
91 1 -8.01109 -10.5249 -7.96511 18.5901 -10.5249 18.636 -0.175852 1.4985 0.22607
12417 1 -9.25702 -9.35007 -7.83548 -9.25702 -9.35007 18.7657 -0.404922 1.14322 -1.60809
11920 1 -9.30099 -9.51475 -6.80681 43.9013 17.0864 46.3955 -0.346802 -1.13739 0.354785
92 1 -8.41619 -9.91558 -7.30867 18.185 -9.91558 19.2925 0.316511 -1.80532 -0.343445
3346 1 -7.45521 -9.39518 -7.3092 -60.6575 17.206 19.2919 0.722526 -2.04406 1.37093
15108 1 -6.81306 -10.0971 -7.80761 -6.81306 16.504 -34.4088 1.55863 0.555036 0.743747
3345 1 -7.31976 -10.1913 -6.77463 -60.5221 16.4098 19.8265 0.611339 -0.444884 0.471809
13313 1 -12.8032 -8.39978 -7.94275 -39.4043 -8.39978 -7.94275 1.39276 -1.79683 -0.649535
1539 1 -12.0005 -8.85087 -7.27141 -38.6016 17.7503 45.9309 0.396095 -0.952501 0.749008
14307 1 -10.9546 -8.46242 -7.76284 -10.9546 -8.46242 -7.76284 0.932015 -1.16792 -0.595193
11582 1 -9.5723 -8.57193 -7.12045 -36.1734 44.6304 72.683 -0.105732 2.51507 -0.526485
11581 1 -10.099 -7.98961 -7.61812 -36.7001 45.2127 72.1853 1.19305 0.135803 -1.02124
3865 1 -8.40119 -8.8509 -7.39437 18.2 17.7503 19.2068 -0.107682 0.949448 0.721315
3866 1 -8.66173 -8.25236 -6.76239 17.9394 18.3488 19.8388 -0.172629 0.170705 -0.701121
1413 1 -6.96065 -8.43807 -7.95053 19.6405 -35.0392 45.2518 -0.361896 -2.74844 -1.58982
732 1 -12.8311 -7.59507 -7.26267 13.77 -34.1962 72.5408 -0.739883 -1.22172 0.441416
1832 1 -12.5112 -6.76197 -7.9513 14.09 -33.3631 -7.9513 1.15028 1.4466 -1.57199
7123 1 -12.2275 -6.78591 -6.89775 -12.2275 19.8152 46.3045 -0.4352 -0.40449 0.0217577
731 1 -11.8979 -7.67785 -7.50054 14.7032 -34.279 72.3029 0.642783 -0.904166 0.248516
1191 1 -11.3951 -6.82723 -7.92236 41.8072 -6.82723 -7.92236 -0.370149 0.0723248 0.235695
14308 1 -11.0591 -7.97473 -6.94373 -11.0591 -7.97473 -6.94373 -1.34568 -0.62548 1.68936
1990 1 -10.2526 -6.91792 -7.19302 69.5508 -6.91792 -33.7942 1.67797 0.116614 0.886035
6409 1 -9.26274 -7.31475 -7.24194 -35.8639 -7.31475 -7.24194 -0.863378 -0.0226922 0.918569
6410 1 -8.39974 -7.29476 -7.65855 -35.0009 -7.29476 -7.65855 0.312767 -0.33829 0.398525
13520 1 -7.6317 -7.9663 -7.15767 -60.834 -7.9663 -33.7588 -0.756685 -0.583133 0.782309
12306 1 -7.47463 -6.96431 -7.07817 19.1265 -6.96431 -7.07817 -1.55437 1.6753 -0.682713
6376 1 -12.5374 -12.9827 -5.88523 -12.5374 13.6185 20.7159 -1.28813 0.950922 1.53712
3041 1 -13.2531 -12.2225 -6.47491 -39.8542 -12.2225 -6.47491 0.0265127 0.938797 -0.730991
12841 1 -11.4779 -13.1847 -5.58151 -11.4779 13.4164 -5.58151 0.77255 2.26702 -0.189406
8075 1 -10.6929 -12.1646 -6.62575 15.9083 41.0377 19.9754 -0.53179 0.112885 0.110157
696 1 -11.6764 -12.1338 -6.02634 14.9247 14.4673 -6.02634 -0.472611 -0.174246 0.669881
12816 1 -9.65291 -13.2938 -6.02147 16.9482 -13.2938 20.5797 0.769668 0.656173 2.6465
12842 1 -10.5977 -12.8964 -5.6802 -10.5977 13.7048 -5.6802 -0.225961 0.69251 -0.638845
15068 1 -8.51553 -12.5283 -5.6351 -8.51553 40.674 -5.6351 -1.61267 -0.663789 -0.0299326
15067 1 -7.99283 -13.0282 -6.22303 -7.99283 40.1741 -6.22303 0.665258 -0.807772 -0.585358
10761 1 -7.99588 -11.9808 -6.3341 -7.99588 41.2215 20.267 0.149655 0.0264099 -0.333416
4451 1 -7.01743 -12.3145 -6.26958 19.5837 14.2866 20.3316 -0.364302 0.60346 -0.160447
5626 1 -12.9233 -11.6609 -5.50209 -39.5245 14.9402 -5.50209 0.587544 -0.330369 -1.15211
695 1 -12.0781 -11.3023 -6.07432 14.523 15.2989 -6.07432 0.324235 -0.643925 -2.1602
6336 1 -10.9246 -11.3237 -6.16853 -64.1269 -11.3237 20.4326 -0.452544 0.719935 -0.648685
12323 1 -10.0377 -11.7689 -5.91448 16.5635 -11.7689 20.6867 -0.499843 -0.386025 -0.164624
3928 1 -9.93932 -10.6721 -6.02662 -9.93932 42.5302 20.5745 -0.362846 1.0732 -0.30266
12266 1 -8.57183 -11.0175 -5.68568 44.6305 -11.0175 20.9155 0.486324 1.41439 0.0374478
3927 1 -9.22044 -10.8531 -6.62635 -9.22044 42.3492 19.9748 -0.242582 -0.986273 0.528565
14355 1 -9.03526 -11.9448 -6.1157 17.5659 -38.546 -6.1157 0.548366 1.22165 -0.314221
11192 1 -7.19934 -11.1716 -5.85942 -7.19934 15.4295 20.7417 0.456503 0.380036 0.565219
4452 1 -6.68182 -11.9362 -5.39812 19.9193 14.665 21.203 0.153088 0.505854 -0.198404
4416 1 -13.1628 -10.5772 -6.42568 -66.3651 16.0239 -33.0268 -0.4331 -1.315 -0.711711
6070 1 -12.7246 -9.69196 -6.21528 -39.3257 -9.69196 -6.21528 -0.263802 0.822517 0.234405
4415 1 -12.7545 -10.56 -5.61589 -65.9567 16.0411 -32.217 0.334305 0.501165 -1.0084
14294 1 -11.4785 -10.3858 -6.00057 -11.4785 16.2154 20.6006 0.149406 0.595419 1.50901
7057 1 -10.9157 -9.52726 -5.55676 -37.5168 -36.1284 -5.55676 0.455954 -0.431421 0.169491
11919 1 -9.93053 -9.61395 -6.05292 43.2718 16.9872 47.1494 -0.129233 0.522477 -0.260211
5249 1 -9.04967 -10.0556 -5.35306 44.1526 -10.0556 -5.35306 -0.0395967 0.618451 -0.999817
13022 1 -8.57272 -10.1245 -6.29348 18.0284 -10.1245 20.3077 -1.62202 -0.306398 -2.64056
12265 1 -7.85642 -10.432 -5.53343 45.3459 -10.432 21.0677 0.149096 0.311653 -1.82444
10201 1 -12.5857 -8.54832 -6.48826 14.0155 18.0528 -33.0894 0.695916 -0.81859 1.86449
6069 1 -11.8433 -9.25723 -6.02459 -38.4444 -9.25723 -6.02459 -0.210433 -0.27982 0.51938
12568 1 -10.5524 -8.80766 -6.52332 42.6499 17.7935 -6.52332 0.385747 0.89657 0.406905
14785 1 -9.94922 -8.94237 -5.34572 -9.94922 -35.5435 -5.34572 0.0531841 -0.0376498 -0.817482
3676 1 -9.12222 -8.83027 -5.9735 -9.12222 -35.4314 20.6276 -0.317655 0.181896 0.237214
13021 1 -8.14269 -9.2073 -6.3523 18.4585 -9.2073 20.2489 -1.4242 -0.606597 -0.599703
3675 1 -8.37778 -8.4607 -5.44359 -8.37778 -35.0618 21.1576 -0.966562 0.357163 -1.24608
4531 1 -7.59858 -9.20953 -5.46711 19.0026 -35.8107 -5.46711 -1.23872 1.35077 -0.586519
7769 1 -7.49029 -8.05607 -5.49951 -7.49029 18.5451 47.7028 -0.415721 -0.866235 -1.24427
5954 1 -7.15447 -8.55605 -6.43086 -7.15447 44.6462 -33.032 1.0937 0.576903 -0.825236
10202 1 -12.5431 -7.62852 -6.24629 14.0581 18.9726 -32.8474 -0.434782 -0.05612 -0.988994
8875 1 -11.4809 -7.9777 -6.02879 15.1203 -34.5788 20.5724 0.967439 1.18875 0.020395
6361 1 -11.7254 -6.95001 -5.8674 -11.7254 -6.95001 -5.8674 -0.157957 -1.46391 0.0850189
12457 1 -10.5798 -7.12923 -5.78057 -10.5798 19.4719 -32.3817 0.220112 0.433869 0.0511025
11700 1 -10.1429 -7.90723 -5.45133 43.0594 -7.90723 47.751 -0.0607211 1.36606 0.0584985
1989 1 -10.1129 -7.72895 -6.62627 69.6906 -7.72895 -33.2274 1.41888 0.162007 0.776876
3752 1 -8.83884 -6.8885 -6.28358 17.7623 -6.8885 -6.28358 -0.160694 0.316581 0.295629
3751 1 -9.26495 -7.718 -6.00398 17.3362 -7.718 -6.00398 -2.10155 -1.15399 0.379207
9960 1 -6.72963 -7.36735 -6.63362 -59.9319 -60.5696 19.9675 -1.50813 1.22623 -0.435627
13519 1 -7.87537 -7.57508 -6.34379 -61.0777 -7.57508 -32.9449 -0.148461 -2.05506 1.32599
9064 1 -7.15681 -6.95241 -5.76869 19.4443 -6.95241 20.8325 -1.15443 -0.647454 0.0111751
4045 1 -12.1488 -12.3167 -5.11196 14.4523 -12.3167 -5.11196 0.491398 -0.69676 -0.237511
4046 1 -12.885 -12.9118 -4.86883 13.7161 -12.9118 -4.86883 1.92332 0.569246 -0.555683
8572 1 -11.0468 -12.0718 -5.2648 15.5544 14.5294 -31.8659 0.819845 -1.22723 -0.503857
10935 1 -11.6274 -12.9254 -4.4885 -11.6274 13.6757 -31.0896 -0.861345 0.802312 1.67628
12237 1 -9.70196 -12.494 -5.31575 -9.70196 14.1072 -5.31575 1.99493 -0.718891 0.582598
8667 1 -10.6145 -13.1423 -4.43883 -10.6145 -13.1423 -4.43883 -0.565812 -0.513012 -0.296049
8571 1 -10.3634 -12.0045 -4.64379 16.2378 14.5966 -31.2449 -1.24625 0.470809 -0.299834
12238 1 -9.00305 -12.1132 -4.84531 -9.00305 14.4879 -4.84531 -0.787311 -0.389984 1.84795
3493 1 -8.26388 -12.7338 -4.28934 44.9384 13.8674 -4.28934 -0.33011 1.06521 -1.39603
15816 1 -9.2737 -12.9455 -4.19924 17.3274 40.2567 22.4019 0.563217 0.749408 -0.476193
13105 1 -7.14559 -12.973 -4.05851 19.4556 -39.5741 22.5426 1.13902 -0.856101 -0.0201554
8689 1 -7.43711 -12.7047 -5.28887 -34.0383 40.4976 21.3123 0.214466 -1.47694 -0.67282
8766 1 -12.8016 -11.5291 -4.00766 13.7996 41.6732 -4.00766 -0.272526 0.0280517 -1.32903
2204 1 -12.4 -10.6416 -4.617 -12.4 15.9596 21.9841 -1.34769 0.419275 1.2195
13294 1 -11.6361 -11.2851 -5.09407 41.5662 -37.8862 -5.09407 0.239003 -0.311189 -0.925532
13293 1 -10.7152 -11.0551 -5.0827 42.4871 -37.6563 -5.0827 0.82516 -0.874731 1.36759
1709 1 -11.7004 -11.3202 -4.01233 -11.7004 -11.3202 -4.01233 0.259763 0.394269 0.392736
7281 1 -9.72056 -11.2395 -4.20122 -9.72056 15.3617 -57.4035 0.51297 -0.297774 0.49752
7282 1 -9.64407 -11.1349 -5.18302 -9.64407 15.4662 -58.3853 0.569614 -0.676331 -0.034841
15651 1 -8.07022 -11.6214 -4.70464 18.5309 -11.6214 48.4976 0.345549 0.962096 -1.28522
11123 1 -8.65173 -10.798 -4.57899 -35.2529 -10.798 22.0222 -2.06359 -1.65279 0.839907
15652 1 -7.21684 -11.9048 -4.39601 19.3843 -11.9048 48.8063 -0.0702566 2.1288 1.02
222 1 -7.36968 -10.6912 -4.54452 -33.9708 15.9099 -31.1457 1.15071 -0.2674 -0.651551
2203 1 -12.5072 -9.74928 -4.827 -12.5072 16.8519 21.7741 -0.279902 -1.95644 0.207085
7058 1 -11.4648 -10.1576 -5.02828 -38.0659 -36.7587 -5.02828 -0.160804 0.91447 -0.580333
7462 1 -11.3083 -10.4307 -4.10178 15.2928 42.7716 -4.10178 -1.56241 0.940101 1.4087
5250 1 -10.0111 -10.1859 -5.0804 43.1911 -10.1859 -5.0804 1.89342 0.864484 0.631617
7461 1 -10.458 -10.0881 -4.09273 16.1431 43.1142 -4.09273 1.15781 1.04952 0.669161
221 1 -8.03305 -9.95959 -4.55381 -34.6342 16.6416 -31.155 -1.59141 1.23618 -0.824656
11124 1 -9.30866 -10.2879 -4.01654 -35.9098 -10.2879 22.5846 0.45073 0.343011 -0.0400894
10115 1 -9.11843 -9.40592 -4.48821 17.4827 17.1952 75.3152 0.850463 0.485928 1.03694
4532 1 -6.8448 -9.61865 -4.90239 19.7564 -36.2198 -4.90239 0.379871 0.0365135 0.117176
4510 1 -12.6212 -8.88316 -5.26524 40.5811 -35.4843 -31.8664 -0.1526 0.00174866 -1.37821
4509 1 -12.9626 -8.5727 -4.37668 40.2397 -35.1738 -30.9778 -0.281524 0.216179 -0.0718865
8876 1 -11.1781 -8.56908 -5.30144 15.4231 -35.1702 21.2997 0.0423911 -1.09176 -0.0210178
1645 1 -11.2718 -9.1703 -4.52185 41.9305 -9.1703 -4.52185 -0.956907 -0.217872 -0.888444
5288 1 -11.9653 -7.98344 -4.57152 -11.9653 -7.98344 48.6308 0.197886 0.742119 1.38724
11699 1 -9.36801 -8.25605 -4.97614 43.8343 -8.25605 48.2262 -1.10719 -0.756913 1.66325