ITEM: TIMESTEP
90000
ITEM: NUMBER OF ATOMS
16000
ITEM: BOX BOUNDS pp pp pp
-1.3300573168565002e+01 1.3300573168565002e+01
-1.3300573168565002e+01 1.3300573168565002e+01
-1.3300573168565002e+01 1.3300573168565002e+01
ITEM: ATOMS id type x y z xu yu zu vx vy vz
12025 1 -12.7896 -7.87974 -8.07503 -12.7896 -34.4809 -8.07503 -0.176619 1.57435 0.615974
7593 1 -11.7397 -11.8558 -11.0426 14.8614 41.3465 -37.6437 1.33095 0.646069 0.55946
11906 1 -12.3985 -8.9068 -10.8248 -38.9996 17.6943 -10.8248 -1.09945 0.181152 -0.679458
8339 1 -6.70376 -13.4035 -10.7051 19.8974 -13.4035 -37.3062 -1.07662 -0.271585 -0.657
11376 1 -13.1694 -10.4294 -11.6622 13.4318 42.7729 -11.6622 -0.25598 -1.44084 0.1183
3078 1 -10.4327 -11.7115 -12.0153 16.1684 14.8896 -12.0153 -0.45835 -0.450708 -0.719991
12152 1 -13.2001 -10.5745 -9.90623 40.0022 -37.1756 -36.5074 -0.927254 -0.55588 1.64412
9766 1 -10.0459 -7.54482 -11.8853 -36.6471 -34.146 -38.4864 -2.19836 -0.190741 1.92181
5885 1 -12.8172 -10.6395 -8.87511 13.7839 15.9617 17.726 0.931323 0.0046147 0.665578
7594 1 -11.4329 -12.7309 -10.6046 15.1683 40.4714 -37.2057 1.45396 1.33567 0.0350585
14681 1 -12.8992 -9.68709 -12.8829 40.3031 -9.68709 -12.8829 -0.788838 0.219931 -1.39178
13601 1 -7.90763 -12.0406 -12.8365 45.2947 -12.0406 -12.8365 -0.18757 2.66097 0.491771
4236 1 -11.1488 -10.8514 -12.809 -37.7499 42.3508 -12.809 -0.063182 -0.131606 -1.00608
12046 1 -10.1017 -13.0415 -10.606 -36.7028 13.5596 15.9952 -1.14223 1.04217 0.844011
1890 1 -10.088 -12.1505 -8.11154 16.5131 -12.1505 -8.11154 -1.68 0.472157 0.418882
3820 1 -10.8047 -10.0463 -13.2145 -10.8047 -10.0463 -13.2145 -0.549378 0.00271791 1.01515
5250 1 -8.32604 -6.79443 -9.30187 44.8762 -6.79443 -9.30187 0.257071 1.56351 0.383127
5570 1 -8.32549 -10.4713 -12.3546 -34.9266 -10.4713 -12.3546 0.21512 1.29627 -1.35319
10043 1 -7.88955 -9.73762 -11.2781 -7.88955 -36.3388 41.9242 -0.422179 -0.216566 0.196928
10030 1 -7.66126 -13.5163 -8.21661 -34.2624 13.0848 -8.21661 0.231048 -0.628812 0.633761
14729 1 -9.06988 -12.5999 -9.28107 17.5313 40.6024 -62.4834 0.310692 -1.17012 0.547307
6673 1 -12.7002 -8.70518 -13.0637 40.5021 17.896 40.1386 0.255083 -0.382202 1.31735
15448 1 -11.9849 -11.2272 -11.9787 14.6163 -11.2272 14.6225 -1.91088 1.06795 0.543603
3199 1 -12.3136 -9.93039 -11.5805 14.2875 -9.93039 15.0206 0.412807 0.315319 -0.516327
10416 1 -12.5425 -12.5112 -10.5078 -39.1437 -12.5112 -37.109 0.347302 1.32555 -0.304638
3200 1 -11.5877 -10.2599 -12.1334 15.0134 -10.2599 14.4677 1.49357 -1.37438 2.01251
278 1 -10.5983 -10.422 -12.0566 16.0029 -10.422 -12.0566 0.207321 1.15396 -0.829514
13469 1 -7.56117 -8.81634 -11.9308 -7.56117 -8.81634 -38.532 -1.03136 -0.560068 -0.304597
4136 1 -6.86888 -13.0728 -7.50051 -6.86888 13.5283 -60.7028 -0.235997 -0.103768 -0.360934
1889 1 -10.2119 -12.5804 -8.9573 16.3893 -12.5804 -8.9573 -0.736372 0.252427 -0.185211
11757 1 -11.9868 -12.7476 -9.58714 -11.9868 -39.3487 17.014 1.62576 0.438592 -2.73604
13313 1 -7.2773 -9.04357 -10.8483 -33.8784 -9.04357 -10.8483 0.315797 -0.0607387 -0.454973
3818 1 -10.8725 -9.40555 -11.4174 15.7287 -36.0067 -38.0186 -1.01037 1.20001 1.28782
5422 1 -11.1122 -12.1957 -13.0284 -11.1122 14.4054 -39.6295 0.938072 0.175046 -0.332899
1845 1 -7.47881 -7.55976 -12.815 19.1223 -34.1609 -12.815 0.218619 0.733334 0.233857
1399 1 -9.40749 -9.91936 -12.3201 17.1937 -36.5205 14.281 -1.07229 0.213089 -1.01402
9765 1 -10.3631 -8.13985 -12.5666 -36.9643 -34.741 -39.1677 -0.60353 1.09927 -0.396343
11162 1 -9.04265 -8.32425 -11.9386 17.5585 -8.32425 41.2637 -0.139919 0.566685 0.881283
3042 1 -12.5367 -11.9477 -13.4819 -39.1378 -11.9477 -13.4819 -0.285424 0.632801 0.64323
12245 1 -12.8593 -13.2826 -13.1532 13.7418 13.3186 -66.3555 -0.948641 -0.411556 1.00521
2481 1 -11.9168 -7.43649 -7.12741 14.6843 19.1647 46.0749 -0.30724 0.234547 -1.37447
3607 1 -7.8033 -9.48288 -7.0162 -34.4044 -9.48288 19.5849 0.199312 0.426285 1.33538
10115 1 -9.92984 -12.5722 -12.4593 16.6713 14.029 67.3441 1.4799 1.05282 -0.773637
8095 1 -9.07397 -12.8311 -13.0064 70.7295 -12.8311 -66.2087 -0.535616 1.24166 0.9289
8720 1 -7.77394 -12.931 -12.3686 45.4283 40.2713 -65.5709 -1.73809 0.102059 -1.16748
14112 1 -8.03901 -7.91161 -11.9209 45.1633 18.6895 14.6802 -0.0278862 1.62668 0.66034
14111 1 -7.26705 -7.36163 -11.7001 45.9352 19.2395 14.901 1.64163 -0.924379 -1.02273
11344 1 -12.8407 -8.83835 -11.8204 93.5639 44.3639 14.7808 -0.547031 -2.02305 0.0319323
14780 1 -8.96111 -12.9603 -7.77256 -8.96111 -12.9603 45.4297 -2.37392 0.768494 -0.240628
10098 1 -7.45187 -11.3356 -9.95605 19.1493 -11.3356 16.6451 -0.154243 0.0930535 -0.666897
8457 1 -10.7036 -7.34074 -11.1597 42.4987 -7.34074 15.4414 0.412229 0.459962 0.998432
7472 1 -6.98133 -12.6951 -11.6979 -6.98133 -39.2962 -11.6979 -0.786829 0.295417 1.34047
13159 1 -9.98493 -6.73991 -8.56438 -9.98493 19.8612 44.6379 0.0477867 0.875897 1.08012
11581 1 -10.0607 -10.1336 -6.89989 -36.6618 43.0687 72.9036 0.793015 -0.191533 -1.4601
6618 1 -13.2307 -12.0913 -11.2763 66.5727 14.5098 41.9259 0.266771 -0.369482 -1.12331
5329 1 -13.0935 -12.1699 -7.48463 -39.6946 -12.1699 -34.0858 1.15974 -0.139574 -0.0704566
4452 1 -7.0044 -8.60963 -12.987 19.5967 17.9915 13.6141 0.270966 0.517395 0.66468
1885 1 -8.97509 -12.692 -10.615 -35.5762 -12.692 -10.615 -1.40712 -1.54408 0.161469
1886 1 -9.28651 -12.0235 -11.2008 -35.8877 -12.0235 -11.2008 0.115039 -0.221486 0.600863
5868 1 -8.88641 -11.3081 -10.6232 44.3159 15.2931 15.9779 1.39852 -1.11528 1.73348
80 1 -12.9089 -11.3896 -12.0116 -39.5101 -11.3896 -12.0116 -0.447203 -0.464567 -0.695219
8361 1 -10.5271 -7.3749 -9.1406 16.074 45.8274 70.6628 -1.20525 0.361979 -0.945928
3077 1 -10.5141 -12.4946 -11.4722 16.087 14.1066 -11.4722 -0.0996376 -0.0533227 0.663368
6167 1 -7.20961 -6.69946 -10.7445 19.3915 19.9017 -10.7445 0.389864 0.595956 -0.268987
5421 1 -11.4004 -12.04 -12.1261 -11.4004 14.5611 -38.7272 0.395441 0.371093 -0.31185
11476 1 -12.9093 -11.6665 -10.0102 13.6918 68.1369 -10.0102 -0.0766406 -0.210123 0.376988
5431 1 -8.27549 -8.84719 -10.9476 -8.27549 -8.84719 42.2547 1.65472 0.235449 1.73826
10044 1 -8.46746 -9.39573 -12.0002 -8.46746 -35.9969 41.2021 -0.424672 -1.38577 -0.744662
9344 1 -9.36969 -11.2073 -12.0201 97.0349 41.995 -38.6213 -0.660739 -0.711629 -0.756668
9343 1 -8.4373 -11.3486 -11.9201 97.9673 41.8537 -38.5213 0.110095 0.369769 0.716669
5251 1 -8.76076 -10.3674 -11.3919 -8.76076 42.8349 15.2092 -1.75451 -0.996487 -0.0757615
15447 1 -11.1443 -11.0279 -11.5967 15.4568 -11.0279 15.0044 0.292564 0.577175 0.0733883
4678 1 -7.18013 -10.4225 -11.9752 19.421 -63.6248 -11.9752 -0.0883789 0.462771 0.367762
5974 1 -11.6161 -9.79229 -10.6374 -11.6161 -36.3934 15.9638 0.776901 -1.19359 0.0448987
11905 1 -13.2916 -9.30661 -11.0647 -39.8928 17.2945 -11.0647 0.97348 -0.265571 -0.546491
277 1 -9.94296 -10.2129 -11.4249 16.6582 -10.2129 -11.4249 1.19973 1.25362 1.56104
5432 1 -8.7315 -9.6323 -10.6911 -8.7315 -9.6323 42.5112 -0.778934 0.693173 0.377073
13470 1 -7.73421 -9.42015 -12.6796 -7.73421 -9.42015 -39.2807 -1.45492 -1.44729 0.517032
11449 1 -7.74831 -7.75586 -9.79887 -7.74831 18.8453 -36.4 -0.749687 1.84275 -0.708494
14911 1 -7.63831 -9.60407 -10.1564 98.7663 16.9971 16.4447 1.21084 -0.0734048 -0.560555
6543 1 -10.0431 -7.66875 -6.88828 16.558 18.9324 -6.88828 0.348642 -0.520804 1.13195
3817 1 -11.7782 -8.96576 -11.6152 14.8229 -35.5669 -38.2163 0.0107837 0.498971 -0.0407632
8222 1 -12.9742 -8.00215 -10.7293 -12.9742 -8.00215 -10.7293 0.404629 -1.04347 0.554894
8221 1 -12.0954 -7.89193 -11.1403 -12.0954 -7.89193 -11.1403 -0.272844 -0.495362 -0.00716886
546 1 -10.7079 -9.18441 -12.4391 -37.3091 17.4167 -65.6413 0.658841 -0.968582 -0.183624
2865 1 -9.52306 -8.43201 -11.0052 -9.52306 -8.43201 15.596 -0.789007 1.90605 -1.35557
1400 1 -9.74427 -9.21093 -11.798 16.8569 -35.8121 14.8032 -0.42556 0.9171 -0.0714587
6470 1 -9.79792 -9.22918 -9.61476 -9.79792 -62.4315 -9.61476 -0.0663518 2.01136 0.628285
13106 1 -8.38578 -7.81428 -10.8272 18.2154 -34.4154 15.774 -0.76028 1.72584 -0.303363
13568 1 -8.16507 -13.1644 -11.0516 45.0372 13.4368 -11.0516 -2.20664 0.624151 1.44026
3608 1 -7.23643 -10.2592 -7.24223 -33.8376 -10.2592 19.3589 -0.640918 -0.704439 -0.201159
7913 1 -7.42676 -9.22509 -8.13568 -7.42676 -62.4274 18.4655 -1.06873 0.59066 0.489078
8683 1 -7.03771 -12.3835 -8.31713 -33.6389 -38.9847 18.284 0.595127 -0.293657 -2.52784
3290 1 -6.7764 -9.39156 -11.7027 -6.7764 -9.39156 14.8985 -1.26304 -1.30239 -1.16687
12246 1 -12.1607 -13.001 -12.5904 14.4404 13.6001 -65.7927 -1.05128 -1.28598 0.82194
6065 1 -13.2983 -7.67166 -12.4056 13.3028 18.9295 14.1956 -0.437883 0.867623 1.79539
602 1 -12.7269 -7.01298 -13.0808 67.0765 -7.01298 13.5203 0.629293 -1.8306 0.426983
545 1 -11.4789 -8.58417 -12.7652 -38.08 18.017 -65.9675 -0.157952 0.821111 -1.06519
2866 1 -10.3947 -8.2909 -10.7182 -10.3947 -8.2909 15.883 0.734643 -1.50379 -0.0908519
6557 1 -9.05607 -7.29209 -11.7352 17.5451 -7.29209 -38.3364 -0.0709254 0.342721 0.809694
79 1 -12.7154 -10.8111 -12.7358 -39.3165 -10.8111 -12.7358 2.08377 -1.25504 0.105327
11161 1 -9.36712 -8.69645 -12.7112 17.234 -8.69645 40.4911 1.87134 -0.222174 -1.26576
2009 1 -7.22105 -12.083 -6.98636 -7.22105 14.5181 46.2159 0.607802 -0.624883 -1.44735
8075 1 -8.43949 -11.0964 -7.83221 18.1617 42.1059 18.7689 1.13258 -0.667377 1.04265
11343 1 -12.3 -8.13883 -12.2486 94.1046 45.0635 14.3526 0.194057 2.06845 -1.7081
13567 1 -8.44468 -12.4391 -11.603 44.7576 14.1621 -11.603 0.717675 -0.157322 -0.529
6730 1 -8.57929 -7.15468 -8.40108 -8.57929 19.4465 -8.40108 -1.90205 -0.450304 1.86785
2556 1 -9.57619 -10.5953 -13.0654 -9.57619 -10.5953 66.7381 -0.819747 -0.106865 -0.411269
5867 1 -9.55255 -11.7506 -10.1361 43.6497 14.8505 16.465 2.74469 -0.364166 -1.53141
8801 1 -12.2619 -12.1088 -6.8842 14.3393 -38.7099 -60.0865 1.05854 0.499741 -0.709252
5231 1 -8.05859 -12.9641 -9.11434 -8.05859 40.2382 17.4868 1.62623 0.440271 -2.15461
2899 1 -8.86645 -7.25001 -12.8679 -8.86645 45.9523 -12.8679 0.743152 1.02637 -1.9164
7914 1 -6.97461 -8.61961 -7.54411 -6.97461 -61.8219 19.057 -1.20428 0.105901 1.35363
10395 1 -7.92727 -11.9357 -10.8916 -7.92727 14.6655 -10.8916 0.204512 -0.197877 0.896116
6617 1 -12.3743 -12.4316 -11.5977 67.4292 14.1695 41.6046 -0.516938 0.381601 0.0442561
9238 1 -10.7137 -11.759 -10.7448 -10.7137 14.8421 -10.7448 1.19547 0.828774 -0.554923
2108 1 -10.5566 -10.4291 -10.6771 16.0445 -37.0303 -37.2783 0.203579 1.21171 -0.199451
4510 1 -12.5438 -10.3323 -10.6161 40.6585 -36.9335 -37.2172 -0.2231 -0.121291 1.45936
9237 1 -10.0136 -11.2342 -11.1458 -10.0136 15.367 -11.1458 -0.71159 1.41397 -2.09035
11422 1 -9.46656 -10.3713 -10.4877 17.1346 16.2299 -37.0889 -0.919079 -0.405652 -0.724533
1101 1 -7.68787 -12.7451 -10.1636 18.9133 13.8561 16.4376 2.56708 0.787654 0.752298
1102 1 -8.27153 -12.0838 -9.84754 18.3296 14.5173 16.7536 -0.177468 0.253836 -0.581483
5252 1 -7.88016 -10.8109 -11.3183 -7.88016 42.3914 15.2829 0.598513 -0.127107 0.956395
10097 1 -8.10639 -10.6363 -10.0302 18.4948 -10.6363 16.5709 1.36978 0.571192 0.652587
4509 1 -12.5543 -11.2613 -10.8787 40.648 -37.8625 -37.4799 0.0908296 1.7436 -0.0273301
2107 1 -11.4442 -10.8088 -10.6217 15.157 -37.41 -37.2229 -0.311176 -1.56176 -1.24665
4609 1 -10.1052 -10.1824 -9.67986 16.496 16.4187 -9.67986 -0.393799 -0.34436 0.462363
6469 1 -9.67152 -9.32625 -10.529 -9.67152 -62.5285 -10.529 -0.563901 1.44272 -1.01066
11450 1 -7.83844 -8.71213 -9.789 -7.83844 17.889 -36.3901 -0.99974 0.344365 0.347379
4407 1 -9.01755 -8.64347 -10.142 44.1847 -8.64347 16.4591 0.667715 -1.17443 0.748034
4113 1 -8.70248 -9.52273 -9.6499 44.4998 -36.1239 43.5524 0.799419 -0.245461 1.65344
7589 1 -8.09098 -10.9015 -8.9935 -61.2933 42.3008 -35.5946 -0.660968 -0.483239 -1.06296
5973 1 -11.2228 -8.91664 -10.7111 -11.2228 -35.5178 15.89 0.771342 -0.405312 0.306378
7556 1 -9.43845 -8.10162 -7.74424 -9.43845 45.1007 45.4581 -0.299294 2.51198 -0.66162
4610 1 -10.7699 -9.62297 -10.0736 15.8312 16.9782 -10.0736 0.457189 0.785838 0.650269
2286 1 -11.749 -7.85152 -8.80533 14.8522 -7.85152 70.9981 -0.192031 -0.106564 0.153745
7605 1 -8.49495 -6.97212 -10.3156 18.1062 19.629 16.2856 2.14608 -0.32332 -1.59725
13961 1 -10.6169 -8.4384 -9.50937 -37.2181 -61.6407 -9.50937 1.56685 1.00616 -1.40554
11884 1 -13.1625 -7.88867 -7.02153 -66.3648 18.7125 46.1808 0.1934 0.475324 0.481116
4305 1 -6.74156 -9.28527 -9.4966 -6.74156 17.3159 -9.4966 -0.54201 -0.41812 0.817268
4408 1 -9.73096 -8.1055 -9.84313 43.4713 -8.1055 16.758 0.488372 -0.489515 -0.719228
5886 1 -13.0972 -11.5113 -8.64721 13.504 15.0898 17.9539 1.276 1.33435 -0.109304
5502 1 -11.3804 -7.62378 -12.4979 15.2207 18.9774 14.1033 -0.279186 -0.273628 0.066101
2040 1 -11.3413 -8.90399 -6.67127 15.2599 17.6972 19.9299 0.539331 -0.587483 1.84021
7590 1 -7.14415 -11.1805 -8.94774 -60.3464 42.0218 -35.5489 0.670271 0.211637 -0.963533
13852 1 -12.0077 -6.96568 -11.7493 -12.0077 -6.96568 41.453 -1.78366 -0.188732 -0.370423
2039 1 -10.7105 -8.3798 -7.1638 15.8906 18.2214 19.4373 0.0468093 0.0325707 -0.956801
11883 1 -12.3454 -8.34713 -7.01244 -65.5477 18.254 46.1898 1.00034 -0.478355 0.315712
13962 1 -11.124 -7.85008 -10.0596 -37.7252 -61.0524 -10.0596 -1.80606 2.3657 2.10515
7216 1 -7.01758 -11.3557 -7.92097 -7.01758 15.2454 -34.5221 0.174915 1.04425 0.266391
1301 1 -6.76145 -7.22033 -9.7483 -33.3626 19.3808 43.454 -0.269619 1.08614 0.179286
11219 1 -13.1416 -12.478 -12.3382 -13.1416 -12.478 -12.3382 -0.079626 0.0879844 0.640021
9988 1 -12.9302 -12.511 -9.26799 40.2721 14.0901 43.9343 0.0949329 0.61969 -0.33725
5953 1 -9.89018 -9.32436 -8.49893 -9.89018 43.8779 -35.1001 1.36216 -0.580767 -0.118307
9987 1 -12.1911 -12.3969 -8.59837 41.0112 14.2043 44.6039 -0.472983 1.21249 -0.839932
11746 1 -12.8141 -9.38687 -9.76982 13.787 -9.38687 16.8313 -0.0959289 1.89438 -0.217914
601 1 -12.131 -7.70768 -13.3683 67.6724 -7.70768 13.2329 1.39245 -0.55509 -0.664795
3793 1 -10.6108 -12.4181 -9.94155 -63.8131 67.3854 16.6596 -0.477778 -1.47486 0.178816
12010 1 -7.16901 -10.2802 -9.48092 19.4321 -10.2802 -9.48092 0.154583 -0.210562 0.309178
14682 1 -12.0691 -9.49959 -12.4948 41.1332 -9.49959 -12.4948 -0.839789 -0.211799 0.413591
13557 1 -8.06567 -6.93287 -12.3079 18.5355 19.6683 -38.909 1.93584 -1.10996 0.37957
5232 1 -7.38785 -12.2405 -9.25784 -7.38785 40.9618 17.3433 -0.793665 1.77166 -1.07951
6817 1 -12.0057 -11.4181 -9.08776 -12.0057 41.7841 17.5134 0.0146308 1.53589 0.100669
15683 1 -6.70516 -9.53351 -6.75287 -33.3063 43.6688 -6.75287 -0.991376 0.55209 -0.00397807
6818 1 -12.1474 -10.7428 -9.76209 -12.1474 42.4594 16.8391 -0.661797 0.564234 0.825102
7609 1 -11.2651 -10.3845 -8.32936 -37.8662 -10.3845 -8.32936 1.07538 -0.457614 2.03552
3794 1 -11.3053 -11.7357 -9.91061 -64.5075 68.0678 16.6905 0.722966 -1.13135 0.194697
11421 1 -9.16189 -10.8255 -9.66762 17.4393 15.7757 -36.2688 -0.382652 0.581977 1.77414
10431 1 -8.91455 -11.5462 -8.73649 -35.5157 -11.5462 17.8647 -0.658322 -0.388179 -1.14342
10432 1 -8.01278 -11.9999 -8.41651 -34.6139 -11.9999 18.1846 0.407345 0.0470925 -0.61682
4754 1 -10.3835 -11.1458 -9.86558 -10.3835 42.0565 16.7356 -0.383289 1.31208 0.43848
4753 1 -10.0913 -11.6705 -9.18431 -10.0913 41.5318 17.4168 -0.39464 0.868015 -0.0699468
13519 1 -10.7871 -10.773 -7.51432 -63.9894 -10.773 -34.1155 2.0933 1.16499 -1.71286
14558 1 -11.0901 -9.35328 -7.86626 -11.0901 -35.9544 45.336 2.07034 -0.905955 0.63541
10016 1 -12.0524 -9.95511 -8.76217 -12.0524 16.646 -8.76217 -0.253027 0.737689 1.38959
10015 1 -11.8209 -9.6037 -9.65425 -11.8209 16.9974 -9.65425 -1.04789 2.54443 0.497542
7610 1 -11.1233 -10.4833 -9.22309 -37.7244 -10.4833 -9.22309 -0.986546 -1.10038 1.47539
6247 1 -9.35694 -9.78374 -7.85041 43.8453 -36.3849 -7.85041 0.649068 -1.25633 1.11443
4114 1 -8.51212 -9.65616 -8.68873 44.6902 -36.2573 44.5136 -0.454259 1.96506 0.755492
5954 1 -10.5857 -9.74945 -8.8769 -10.5857 43.4528 -35.478 0.44202 -0.643465 -0.596446
8076 1 -8.33545 -10.1634 -7.66853 18.2657 43.0389 18.9326 -0.462603 0.697405 1.98687
2763 1 -9.10754 -8.9276 -8.90518 70.6959 -35.5287 -8.90518 -1.24478 0.525681 -1.94876
2764 1 -8.16116 -8.67575 -8.8958 71.6423 -35.2769 -8.8958 -0.623088 0.247809 0.720149
2555 1 -10.1278 -11.3606 -13.0848 -10.1278 -11.3606 66.7186 0.522014 -0.874781 0.993104
8022 1 -12.5485 -8.48718 -8.9715 14.0527 -8.48718 -8.9715 1.20972 0.612748 0.486933
8021 1 -12.3404 -9.00851 -8.22928 14.2607 -9.00851 -8.22928 0.160587 0.528228 1.01182
2285 1 -11.5339 -8.18292 -7.90496 15.0673 -8.18292 71.8985 0.471123 -1.06257 -0.669776
10491 1 -10.6238 -7.57407 -8.10484 -63.8261 45.6282 18.4963 -0.156089 -0.302957 1.42855
6656 1 -11.4162 -9.0421 -8.93685 15.1849 17.559 70.8666 2.327 -0.063781 -1.39435
6655 1 -11.9184 -8.59445 -9.67926 14.6827 18.0067 70.1242 0.928873 -0.105309 -1.63426
13306 1 -8.6982 -8.94261 -7.91812 -8.6982 17.6585 -7.91812 -0.182241 1.61987 0.646903
15226 1 -8.12044 -8.50833 -6.92822 -8.12044 18.0928 -6.92822 0.394136 -1.17642 1.56458
1471 1 -8.64412 -7.90193 -9.3079 44.5582 -7.90193 -9.3079 -0.484141 -0.545691 0.354271
11262 1 -12.5358 -7.10229 -9.01868 14.0654 46.1 -9.01868 1.22613 0.845881 -0.91428
11261 1 -12.439 -7.58603 -9.85563 14.1622 45.6163 -9.85563 -1.48857 -0.143257 -0.081867
6558 1 -9.34262 -7.34549 -10.8386 17.2585 -7.34549 -37.4398 -0.375541 0.878385 1.9271
8458 1 -10.2359 -7.12783 -10.3576 42.9664 -7.12783 16.2436 0.561483 -1.07158 -1.15781
7555 1 -9.80257 -7.96986 -8.56287 -9.80257 45.2324 44.6394 -1.58699 -0.958649 0.450438
10492 1 -10.6187 -8.52239 -8.27289 -63.821 44.6799 18.3283 -1.23741 -1.1507 1.53194
7540 1 -7.49342 -7.58927 -7.12352 -7.49342 19.0119 19.4776 0.516695 0.590686 -0.0740155
10116 1 -9.39299 -12.7925 -11.7475 17.2082 13.8086 68.056 0.44947 -0.151228 0.749606
7539 1 -7.82131 -7.81606 -8.03126 -7.82131 18.7851 18.5699 1.76879 -1.45812 -1.5943
15317 1 -7.11986 -8.33788 -8.7219 -7.11986 18.2633 -8.7219 0.782107 0.719029 -0.642834
6248 1 -9.92667 -9.058 -7.49875 43.2756 -35.6591 -7.49875 1.3454 -1.68158 1.29034
8292 1 -11.8091 -12.8141 -7.64989 -11.8091 -12.8141 -34.251 0.401329 0.33988 -0.614951
8362 1 -11.323 -6.97758 -9.46248 15.2782 46.2247 70.341 -1.43094 2.61246 0.372281
8422 1 -10.8524 -11.4162 -8.39357 -10.8524 41.786 -34.9947 -0.143162 1.59651 1.0163
12959 1 -9.78176 -11.1346 -8.41134 -9.78176 42.0676 -8.41134 -0.902793 -0.792403 0.27211
3289 1 -6.67013 -8.42849 -11.5745 -6.67013 -8.42849 15.0266 0.00230647 1.61235 -0.0846452
7390 1 -6.66485 -9.96392 -12.6964 -33.266 16.6372 -12.6964 1.0357 0.696644 -1.68698
14779 1 -8.82642 -11.9814 -7.69722 -8.82642 -11.9814 45.5051 0.845149 -1.22151 -0.113277
14912 1 -6.81114 -9.91277 -10.5372 99.5934 16.6884 16.0639 -0.919063 -0.645516 1.47031
14483 1 -9.88023 -12.4403 -7.08633 -9.88023 -65.6426 19.5148 0.129205 1.12238 0.107744
13160 1 -9.5383 -7.02074 -7.76547 -9.5383 19.5804 45.4368 -0.336124 -0.935253 0.402935
7521 1 -10.9941 -6.99001 -7.29344 -37.5953 -33.5912 -7.29344 0.401336 -0.0897047 -0.884045
13851 1 -11.104 -6.70497 -11.8788 -11.104 -6.70497 41.3235 -0.984328 1.08282 -0.584411
301 1 -7.49184 -10.2542 -8.34707 -7.49184 42.9481 -8.34707 1.6695 1.37594 0.223825
6066 1 -13.2538 -7.36136 -11.48 13.3473 19.2398 15.1211 0.510591 -0.652288 -0.0752675
13602 1 -8.74964 -11.6893 -12.7726 44.4527 -11.6893 -12.7726 -0.710354 -1.02088 3.08071
6962 1 -11.221 -11.9115 -7.61057 -11.221 41.2907 -7.61057 1.74892 -0.425836 0.803474
8421 1 -11.3225 -12.1371 -8.82521 -11.3225 41.0652 -35.4264 -0.359156 0.318451 -0.798048
13510 1 -6.64162 -12.2481 -10.2825 46.5607 -38.8493 -36.8837 0.468561 -0.740878 -0.66218
12960 1 -9.303 -10.3818 -8.75844 -9.303 42.8205 -8.75844 -1.05056 1.7193 -1.16601
6961 1 -11.9556 -11.2355 -7.53671 -11.9556 41.9668 -7.53671 -1.27021 -0.0780053 1.15518
6729 1 -8.66404 -7.40228 -7.47619 -8.66404 19.1989 -7.47619 -0.110748 0.642603 0.58255
2010 1 -7.78818 -12.6193 -7.65857 -7.78818 13.9819 45.5437 -2.10322 0.606848 -0.570389
1472 1 -9.34464 -7.21761 -9.12685 43.8577 -7.21761 -9.12685 0.599297 -0.224838 -1.34702
13305 1 -8.92117 -9.226 -7.02307 -8.92117 17.3751 -7.02307 0.125985 -0.3706 -1.32299
2482 1 -11.9573 -7.21262 -8.05506 14.6438 19.3885 45.1472 -0.229906 1.06942 -0.873074
14557 1 -11.646 -9.78476 -7.2779 -11.646 -36.3859 45.9244 0.0453424 0.411547 -0.288374
5501 1 -11.0698 -8.20589 -11.75 15.5313 18.3953 14.8511 -0.691574 -0.422769 2.16218
9033 1 -11.7323 -6.95648 -10.6234 41.47 19.6447 15.9778 0.0443097 -0.57513 -2.75945
13520 1 -10.2727 -10.1841 -8.09686 -63.475 -10.1841 -34.698 0.333058 0.426084 -0.571267
3852 1 -9.48651 -11.2097 -7.42886 -9.48651 -37.8109 45.7734 1.31187 1.87386 0.402574
8911 1 -6.81107 -7.3747 -8.05485 -33.4122 19.2264 18.5463 -0.225821 2.11005 -0.439432
3851 1 -10.1668 -11.308 -6.78385 -10.1668 -37.9092 46.4184 -2.2383 -0.679035 0.328933
5569 1 -7.50712 -10.8534 -12.8117 -34.1083 -10.8534 -12.8117 1.16831 0.0277274 -0.703527
5014 1 -12.7426 -10.2371 -7.03385 40.4597 42.9652 46.1684 0.753273 3.69078e-05 -0.877596
13314 1 -7.17244 -8.04756 -10.6354 -33.7736 -8.04756 -10.6354 -0.658089 1.12295 1.10932
5013 1 -13.159 -10.4904 -7.88204 40.0433 42.7119 45.3202 -0.290989 -1.24384 -0.187465
8912 1 -7.23485 -7.01392 -8.80908 -33.836 19.5872 17.7921 0.248173 -0.118784 -1.63724
6544 1 -9.21068 -8.21724 -6.70103 17.3905 18.3839 -6.70103 0.352773 1.34271 0.723623
2900 1 -8.39698 -8.09796 -13.0512 -8.39698 45.1043 -13.0512 0.803876 -1.68748 0.330695
2359 1 -6.85006 -12.4239 -12.94 19.7511 -12.4239 -12.94 1.00591 -0.266037 1.73482
14484 1 -10.6598 -12.7932 -7.4555 -10.6598 -65.9955 19.1456 -0.400202 -0.545398 0.347946
10396 1 -7.07628 -11.3094 -10.8719 -7.07628 15.2917 -10.8719 -0.535648 -1.08777 -0.876778
7050 1 -7.48773 -6.63359 -7.76372 -34.0889 -6.63359 -34.3649 0.969598 -1.29463 -0.71331
7471 1 -6.79177 -11.7699 -11.8792 -6.79177 -38.3711 -11.8792 -0.514474 -1.34144 0.0469348
13105 1 -8.14807 -7.00523 -11.2596 18.4531 -33.6064 15.3416 -0.974018 -0.0438108 1.00724
14730 1 -9.36696 -13.4725 -9.19848 17.2342 39.7298 -62.4008 -0.65498 -1.29502 0.0348269
7522 1 -10.1524 -6.68427 -6.95217 -36.7535 -33.2854 -6.95217 -0.0240237 1.27788 -2.28849
693 1 -7.05273 -13.2881 -9.15464 -33.6539 39.9141 -9.15464 0.750216 1.40269 2.893
11758 1 -11.2924 -13.2177 -9.1987 -11.2924 -39.8189 17.4024 -1.1906 -0.60063 0.00886556
6719 1 -10.8848 -13.2447 -12.5195 -10.8848 13.3565 -12.5195 1.76688 -0.09035 -0.035534
8802 1 -12.8405 -11.3639 -6.65102 13.7607 -37.9651 -59.8533 -0.257846 -0.998344 -0.499923
8140 1 -12.8242 -9.25676 -6.73772 -39.4253 43.9455 -59.94 0.96261 -1.28107 1.00261
4235 1 -11.8548 -10.3974 -13.2097 -38.456 42.8049 -13.2097 -0.9551 1.66427 0.569834
10233 1 -12.5206 -13.0727 -6.4591 14.0806 -13.0727 73.3443 -1.48547 -1.87249 0.195159
669 1 -13.1051 -10.2961 -5.08608 -13.1051 -36.8972 -5.08608 -0.0508882 0.808338 0.879464
1228 1 -10.7874 -12.1378 -6.71545 15.8137 14.4634 -59.9177 -0.97806 1.0978 -0.372973
5393 1 -13.1936 -11.7911 -2.34881 13.4076 -11.7911 -2.34881 -0.456823 1.84819 -0.609427
9451 1 -8.29743 -12.7928 -5.29661 -8.29743 -12.7928 -5.29661 -0.250738 0.170418 2.26068
9452 1 -9.19419 -12.6963 -5.64027 -9.19419 -12.6963 -5.64027 -0.943577 -0.0829789 0.436743
12674 1 -7.98398 -11.0975 -5.52002 -34.5851 15.5036 -32.1212 0.848535 -0.935714 0.801704
6044 1 -13.1464 -11.4322 -4.87436 -39.7475 15.1689 -58.0767 -1.00887 0.414946 0.319238
12673 1 -7.81624 -10.3024 -6.08128 -34.4174 16.2987 -32.6824 -1.05103 0.132801 0.232243
4685 1 -11.2947 -10.917 -5.49924 15.3064 -37.5181 21.1019 -0.508483 -0.0802999 0.124944
2730 1 -13.0073 -10.4809 -6.07529 66.7961 -10.4809 -6.07529 0.0760167 -0.322052 -1.23589
4270 1 -9.01363 -11.8547 -5.15433 70.7898 -11.8547 21.4468 0.827079 1.34681 -1.45643
12849 1 -7.04668 -12.6912 -5.57578 -33.6478 13.91 -58.7781 1.39947 0.688517 -0.76387
5129 1 -8.30552 -10.3868 -3.97538 -8.30552 -10.3868 22.6258 -0.52249 -0.192521 1.49988
4269 1 -9.69033 -11.8059 -4.46073 70.1131 -11.8059 22.1404 -1.02175 -0.211521 -0.701667
6754 1 -7.4785 -13.299 -2.50017 19.1226 39.9033 -2.50017 1.2901 0.495551 0.170982
6281 1 -7.35675 -10.3566 -4.39581 -33.9579 -36.9577 -4.39581 0.0971516 -0.595147 -0.986312
15815 1 -13.0921 -11.2242 -3.67387 13.5091 41.9781 22.9273 -0.671523 -0.359913 1.38507
5130 1 -8.2806 -10.0591 -4.91008 -8.2806 -10.0591 21.6911 0.622483 -0.417299 -1.6677
12458 1 -7.28782 -9.15236 -5.96211 -7.28782 17.4488 -32.5633 0.811694 -0.294503 0.512347
6621 1 -12.0601 -9.79343 -6.2133 14.5411 -9.79343 46.989 1.56456 -1.17169 -0.998828
11582 1 -10.405 -9.3665 -6.45793 -37.0061 43.8358 73.3455 1.0876 -1.05111 -0.0767942
1191 1 -12.1281 -8.81342 -5.95906 41.0742 -8.81342 -5.95906 0.947358 -0.386116 -1.13772
1340 1 -10.6383 -13.2044 -0.648267 -10.6383 39.9979 -53.8506 -2.08053 0.181361 -0.030251
3739 1 -8.08839 -8.29267 -4.30976 18.5128 -8.29267 -4.30976 -0.387815 -0.411645 -0.313763
6043 1 -12.3742 -10.9767 -4.67633 -38.9754 15.6245 -57.8786 0.713468 -0.151957 -0.452332
3740 1 -8.48367 -8.08449 -5.1488 18.1175 -8.08449 -5.1488 -1.31167 1.8572 -1.32826
1634 1 -13.1651 -7.05176 -5.42428 40.0371 19.5494 21.1769 -0.925983 1.34039 -0.987862
11741 1 -12.2854 -12.5318 -4.58082 -38.8865 14.0694 -4.58082 -0.854104 0.0475748 -2.42446
12215 1 -11.3766 -7.66782 -5.30465 -11.3766 -7.66782 -31.9058 -0.33329 -0.793071 -0.228632
14647 1 -10.7285 -8.05273 -6.07969 -10.7285 18.5484 20.5215 -0.835077 -1.47251 1.22529
13458 1 -9.63302 -8.21577 -5.70247 -9.63302 -8.21577 47.4998 -0.356784 0.656125 0.473475
6204 1 -9.49638 -9.49616 -6.03448 17.1048 43.7061 73.769 -0.0425882 -0.00795874 -2.2661
6622 1 -11.1521 -9.95441 -6.39515 15.449 -9.95441 46.8071 0.792849 1.00603 -0.190676
6614 1 -13.2526 -13.2059 -1.79045 13.3485 66.5975 -1.79045 -0.498219 1.09352 -0.618067
15265 1 -9.08723 -10.5256 -5.61524 17.5139 16.0755 20.9859 0.563213 2.31023 -0.844985
7881 1 -11.0203 -12.1157 -5.61354 -11.0203 -12.1157 -5.61354 1.01464 -1.03457 0.5734
10979 1 -11.6983 -12.0728 -3.83165 41.504 -38.6739 -30.4328 -0.243155 1.5469 1.41593
4045 1 -12.2867 -12.6899 -1.41659 14.3144 -12.6899 -1.41659 1.2068 -0.981869 -0.525539
12216 1 -12.1966 -7.99713 -5.14687 -12.1966 -7.99713 -31.748 -0.237414 -0.661385 -0.970408
8667 1 -7.25067 -13.1914 -4.45798 -7.25067 -13.1914 -4.45798 -2.27022 0.14244 -1.95121
2771 1 -7.24052 -7.39632 -4.46325 45.9618 19.2048 -4.46325 1.34994 0.910488 0.0400509
12190 1 -11.0483 -6.8226 -6.08169 -11.0483 46.3797 -6.08169 -1.3931 -0.633093 -1.10274
13457 1 -9.9674 -7.72678 -5.02429 -9.9674 -7.72678 48.178 1.68299 1.23602 0.622513
12189 1 -10.1684 -6.84947 -5.72933 -10.1684 46.3528 -5.72933 -0.385481 1.35213 1.40644
670 1 -12.803 -9.45128 -5.23656 -12.803 -36.0524 -5.23656 0.362847 -0.614266 -1.08732
10980 1 -11.4889 -11.7957 -4.70411 41.7134 -38.3969 -31.3053 1.65752 1.3192 0.0170796
6335 1 -7.46831 -8.17822 -6.22264 -60.6706 -8.17822 20.3785 0.550624 0.456552 0.373398
1227 1 -11.6004 -12.687 -6.55257 15.0008 13.9141 -59.7549 -0.859068 0.851786 0.175621
14025 1 -12.2773 -10.4273 -3.29456 -12.2773 16.1739 -3.29456 0.662899 0.360238 -0.807387
10458 1 -10.6136 -12.9939 -2.24412 -10.6136 -12.9939 24.357 1.00118 -0.237843 0.775789
1633 1 -12.8405 -7.86216 -5.92153 40.3618 18.739 20.6796 0.608603 -0.736619 -0.553476
3758 1 -10.0394 -12.1574 -5.32111 -36.6406 -38.7586 21.28 0.380823 0.770646 -0.63425
5770 1 -8.8002 -12.4826 -4.02587 -8.8002 14.1186 22.5753 0.184504 1.2305 0.215397
5769 1 -9.59419 -12.4189 -3.55922 -9.59419 14.1823 23.0419 0.302163 -0.243324 1.07209
11701 1 -7.98479 -11.5374 -3.29554 18.6164 15.0637 23.3056 -1.87994 -0.899565 1.26109
15816 1 -12.8026 -12.1304 -3.42726 13.7985 41.0719 23.1739 -0.40352 -0.786098 -0.947681
11672 1 -12.95 -7.93182 -2.40467 13.6512 -7.93182 -2.40467 0.588452 -1.6085 -0.928799
11606 1 -12.8848 -12.2136 -5.69288 13.7164 -12.2136 20.9083 -0.157733 0.169968 1.53247
10667 1 -7.64167 -12.2941 -2.65008 45.5606 -12.2941 23.9511 -0.239298 -0.993092 -0.631177
4686 1 -11.9935 -10.2631 -5.35816 14.6076 -36.8643 21.243 -0.831348 1.35333 0.613551
3757 1 -9.54226 -11.7272 -6.02507 -36.1434 -38.3283 20.5761 0.517583 -0.13886 0.878946
14240 1 -8.04084 -12.2315 -6.27155 -8.04084 14.3696 20.3296 -0.82115 1.63162 0.776924
11702 1 -8.49594 -11.3955 -4.13018 18.1052 15.2057 22.471 0.675463 -1.01933 -0.726495
15225 1 -8.46183 -8.67869 -6.00577 -8.46183 17.9225 -6.00577 1.05053 -0.434338 -0.227271
13757 1 -10.6882 -12.6586 -3.24565 15.913 40.5437 23.3555 0.792717 -0.184909 0.97517
3373 1 -6.81387 -10.8292 -1.46836 19.7873 -10.8292 25.1328 -0.322628 0.614175 0.289264
14488 1 -10.9015 -9.89995 -5.44055 15.6997 -9.89995 -32.0417 0.731453 -0.508325 -0.964712
15684 1 -6.74798 -10.4351 -6.43086 -33.3491 42.7672 -6.43086 0.0958727 0.894034 -0.569528
8486 1 -7.91202 -7.29119 -2.71124 18.6891 -33.8923 -29.3124 1.14794 -0.832861 1.79652
14487 1 -10.7311 -10.1126 -4.59786 15.87 -10.1126 -31.199 0.155773 -1.13067 -0.258723
14452 1 -9.35448 -10.6164 -3.71004 17.2467 15.9847 -3.71004 -0.659129 0.421169 0.945046
14239 1 -8.97798 -12.2469 -6.66208 -8.97798 14.3542 19.9391 1.30665 -0.264458 -0.253439
11613 1 -10.538 -11.1071 -4.84599 -37.1391 15.494 21.7552 0.148709 -0.493168 1.15341
212 1 -12.1449 -9.02514 -4.52219 41.0574 -35.6263 48.6801 1.41786 -0.530236 -0.561954
211 1 -12.9496 -9.36883 -4.15219 40.2527 -35.97 49.0501 0.519151 1.75595 -0.689399
9970 1 -7.32713 -8.3972 -2.52222 19.274 -8.3972 24.0789 0.0895717 0.20647 0.512875
326 1 -6.88305 -10.9935 -3.46991 -6.88305 -10.9935 -3.46991 -0.0598093 -0.20264 0.902223
8074 1 -10.9756 -9.08449 -4.2561 -10.9756 70.7189 -4.2561 0.325443 -1.22723 -0.801485
5288 1 -12.7108 -8.5927 -3.19388 -12.7108 -8.5927 50.0084 0.164674 -2.52205 -0.237453
8073 1 -10.9551 -8.62976 -3.3945 -10.9551 71.1737 -3.3945 0.53335 1.40156 -0.0921747
11433 1 -11.8236 -8.67627 -2.63484 14.7776 17.9249 -2.63484 -1.77166 0.524153 0.858463
6203 1 -9.93075 -9.64233 -5.20748 16.6704 43.56 74.596 -0.0914547 0.843856 0.459805
6361 1 -9.98259 -8.87346 -2.20441 -9.98259 -8.87346 -2.20441 -0.241231 -1.78567 1.74615
2225 1 -8.91755 -9.19477 -4.05782 -35.5187 17.4064 -30.659 -0.931057 -0.302146 0.805619
10920 1 -8.49887 -7.23688 -4.52677 18.1023 19.3643 -57.7291 -0.709663 0.748279 0.25658