ITEM: TIMESTEP
80000
ITEM: NUMBER OF ATOMS
16000
ITEM: BOX BOUNDS pp pp pp
-1.3300573168565002e+01 1.3300573168565002e+01
-1.3300573168565002e+01 1.3300573168565002e+01
-1.3300573168565002e+01 1.3300573168565002e+01
ITEM: ATOMS id type x y z xu yu zu vx vy vz
886 1 -11.9293 -10.3003 -8.93684 -65.1316 -10.3003 44.2655 1.12067 -0.785645 -0.164539
7390 1 -7.54527 -7.67563 -12.4463 -34.1464 18.9255 -12.4463 -0.189597 -0.407998 0.235123
5937 1 -10.7584 -10.8282 -12.7995 -90.5618 15.773 13.8016 0.452381 0.264365 1.84648
10016 1 -12.7399 -13.2503 -8.45032 -12.7399 13.3508 -8.45032 2.03847 -0.858547 0.638475
8683 1 -8.54885 -9.33857 -10.1899 -35.15 -35.9397 16.4112 -0.166488 -1.66037 -0.338307
6965 1 -7.92681 -13.0982 -11.332 -34.528 40.1041 -37.9332 -1.54563 -0.391372 -0.546881
1885 1 -8.69722 -12.6613 -10.2165 -35.2984 -12.6613 -10.2165 -1.8463 0.626622 0.745097
10687 1 -12.9241 -13.1189 -11.4707 -12.9241 13.4822 41.7316 2.1265 -0.0985021 -0.31039
5820 1 -12.6127 -10.7864 -12.5295 -12.6127 -10.7864 40.6728 -0.162783 1.39869 -1.33934
5973 1 -11.592 -10.3701 -12.523 -11.592 -36.9712 14.0782 0.722463 -0.508493 0.128456
9448 1 -12.2053 -12.2352 -9.00229 -12.2053 -12.2352 17.5989 -1.11162 1.84601 0.470535
2555 1 -11.3399 -12.8014 -9.64842 -11.3399 -12.8014 70.155 -1.0939 0.625874 -0.313375
2108 1 -8.77578 -11.5702 -12.5153 17.8254 -38.1714 -39.1165 0.498321 -1.3361 -0.456353
2285 1 -9.22787 -7.70445 -12.3652 17.3733 -7.70445 67.4382 -0.908818 -2.13414 0.0952854
2107 1 -8.74455 -12.5184 -12.3605 17.8566 -39.1195 -38.9617 -1.74324 0.829647 0.593433
3302 1 -10.4199 -11.7935 -13.3036 -10.4199 41.4088 13.2976 1.43901 -1.43858 -0.442788
9037 1 -12.3517 -9.81084 -12.0399 40.8506 -36.412 14.5613 -1.57811 -1.1573 1.61558
9766 1 -11.4801 -7.24176 -11.1183 -38.0813 -33.8429 -37.7195 1.34513 0.199068 0.300191
5974 1 -11.0798 -9.58142 -12.5636 -11.0798 -36.1826 14.0375 2.86163 0.492562 0.46925
11572 1 -6.83409 -9.40598 -7.0136 -6.83409 17.1952 -33.6147 2.49016 -0.302201 -0.927461
5249 1 -12.5935 -13.2208 -9.45177 40.6088 -13.2208 -9.45177 -0.25678 1.27295 0.643636
5501 1 -12.448 -7.42583 -10.4958 14.1532 19.1753 16.1053 -0.670416 -0.718009 0.691724
4646 1 -7.22123 -10.8061 -12.9614 -7.22123 42.3962 -12.9614 0.350329 1.08924 -0.385019
13156 1 -10.3219 -13.0493 -11.5564 -10.3219 13.5519 -38.1575 -1.34681 -0.725898 -0.0254204
9447 1 -12.696 -12.233 -8.18824 -12.696 -12.233 18.4129 0.12454 1.00139 -0.363615
4610 1 -7.89611 -10.9826 -11.9948 18.705 15.6186 -11.9948 0.64001 -1.28891 0.22243
5304 1 -12.0009 -8.85721 -12.2081 -12.0009 -8.85721 14.393 -0.151309 -0.474912 0.309434
7555 1 -12.8123 -7.07357 -9.4228 -12.8123 46.1287 43.7795 -0.420175 -1.20892 0.789394
13851 1 -10.9796 -8.48096 -12.2153 -10.9796 -8.48096 40.987 1.05258 1.71462 0.524087
10915 1 -11.8289 -7.7878 -9.60055 14.7722 -60.9901 -9.60055 0.536064 0.618829 1.56035
15295 1 -8.13829 -9.91793 -12.4022 -61.3406 43.2844 14.1989 -0.28691 -1.89111 0.984924
9038 1 -12.3768 -9.47784 -12.9782 40.8255 -36.079 13.6229 0.206292 -1.67529 -0.697751
15578 1 -7.89041 -12.6913 -12.9922 -7.89041 -12.6913 40.2101 -0.243485 -0.14124 -1.14354
6674 1 -12.5164 -8.48441 -10.7208 40.6859 18.1167 42.4815 0.604438 -0.0928314 0.064813
6673 1 -12.7121 -8.02488 -11.5107 40.4902 18.5763 41.6916 -1.14569 -0.352478 1.17532
3922 1 -12.6995 -8.08748 -12.6582 13.9017 -34.6886 -12.6582 0.959399 0.257804 1.62027
6656 1 -9.56786 -6.68426 -7.59598 17.0333 19.9169 72.2075 0.39234 -0.280532 1.60172
5421 1 -9.58167 -12.0254 -11.891 -9.58167 14.5757 -38.4922 0.141482 -0.849792 -0.112499
12968 1 -11.7738 -7.40983 -12.8936 -38.375 -34.011 -12.8936 0.0335809 0.628806 -0.811568
1191 1 -13.2014 -7.2537 -7.07636 40.0009 -7.2537 -7.07636 -1.40187 0.629943 -1.42468
13458 1 -12.5876 -10.1943 -7.0045 -12.5876 -10.1943 46.1978 -2.35304 0.592255 -2.04114
20 1 -7.50966 -10.5572 -8.74124 19.0915 -10.5572 17.8599 0.53913 -1.27285 -0.0333486
10415 1 -11.0449 -11.6711 -8.14911 -37.646 -11.6711 -34.7503 -0.101585 1.55768 -0.592922
13658 1 -12.0606 -8.856 -7.00782 -12.0606 -8.856 -33.609 -0.246102 0.20007 -0.529781
11421 1 -7.14601 -12.7656 -11.9655 19.4551 13.8355 -38.5667 0.874565 1.0062 0.0726602
7594 1 -12.6909 -12.9474 -7.3695 13.9102 40.2548 -33.9706 -0.676528 1.50818 1.6118
15661 1 -12.2463 -12.5187 -11.8429 14.3549 -12.5187 -38.444 0.565885 -0.337799 -0.688981
5880 1 -7.7717 -13.0136 -10.3599 -7.7717 -39.6147 -10.3599 0.0909444 -0.00459024 0.322664
5885 1 -13.031 -11.3657 -8.62648 13.5701 15.2355 17.9747 -0.789802 -1.48353 0.96668
14501 1 -11.3948 -12.554 -12.628 15.2063 -12.554 13.9731 0.613837 1.07692 -0.357406
14681 1 -9.94562 -11.2787 -11.338 43.2567 -11.2787 -11.338 1.26757 2.0361 -0.241633
1886 1 -9.14364 -12.4152 -11.0267 -35.7448 -12.4152 -11.0267 1.30702 1.78391 1.73062
13185 1 -9.21769 -11.5106 -10.6017 17.3835 -11.5106 15.9994 -0.81243 0.586992 0.470922
12246 1 -9.68981 -10.8379 -13.2677 16.9113 15.7633 -66.47 0.662438 0.298368 -1.06275
3424 1 -9.21574 -9.95345 -12.9837 17.3854 43.2488 -12.9837 0.513477 0.0930906 0.2837
5879 1 -7.88518 -12.1195 -10.7246 -7.88518 -38.7207 -10.7246 -0.577262 1.07878 0.609469
14502 1 -10.5594 -12.7072 -13.081 16.0417 -12.7072 13.5201 -1.22713 1.26237 -1.01567
3199 1 -11.7854 -11.2165 -11.9228 14.8157 -11.2165 14.6784 -0.848814 0.885545 0.287327
2286 1 -8.90796 -8.41034 -11.8536 17.6932 -8.41034 67.9499 -1.64335 -1.22967 -0.72745
5938 1 -10.7712 -10.8824 -11.8241 -90.5747 15.7187 14.777 2.56431 0.497481 -2.07225
14682 1 -10.2113 -12.0842 -10.8861 42.991 -12.0842 -10.8861 -0.359551 -0.105945 -0.19046
13186 1 -9.54905 -12.07 -9.89876 17.0521 -12.07 16.7024 -1.10336 -1.80216 -0.766496
10395 1 -7.90944 -12.1099 -11.9365 -7.90944 14.4912 -11.9365 -0.371635 -1.10005 0.568588
4678 1 -7.31263 -11.5072 -10.0191 19.2885 -64.7095 -10.0191 0.134138 -0.779705 1.20498
4408 1 -12.4725 -12.9255 -12.7845 40.7298 -12.9255 13.8167 0.111591 -0.635263 -0.463672
7829 1 -7.73153 -6.91281 -11.0111 45.4708 -6.91281 -11.0111 -1.44971 -0.48922 0.029905
2556 1 -11.2356 -12.3649 -10.5354 -11.2356 -12.3649 69.2681 0.425672 -0.150069 -0.942247
1580 1 -11.2795 -9.84431 -11.6162 15.3216 16.7568 -64.8185 1.69634 0.470731 -0.243263
1579 1 -11.8553 -9.24323 -11.1418 14.7458 17.3579 -64.3441 -1.36248 0.0595918 -1.26679
7604 1 -9.25988 -10.7107 -12.1488 -62.4622 -10.7107 14.4523 1.44247 -0.0377114 2.1541
7603 1 -10.0924 -10.2691 -12.3725 -63.2946 -10.2691 14.2286 -1.09567 -0.0941661 -0.339925
13559 1 -10.2446 -9.20257 -12.1736 -10.2446 -35.8037 14.4276 0.266338 -0.121342 0.238482
13603 1 -8.31636 -11.3008 -10.1109 44.8859 41.9014 16.4902 1.29445 -0.387229 -0.978209
15448 1 -8.5369 -10.4301 -11.397 18.0642 -10.4301 15.2042 0.0153954 0.42292 -0.12441
4677 1 -6.70266 -11.207 -10.7451 19.8985 -64.4093 -10.7451 -1.0825 -0.865919 -2.22734
7606 1 -11.9646 -10.9701 -10.456 14.6366 15.631 16.1451 0.344463 0.0795146 2.0293
5053 1 -11.6703 -8.19983 -11.2484 -11.6703 -61.4021 15.3527 0.697023 0.381046 0.421365
5054 1 -11.597 -8.55595 -10.3606 -11.597 -61.7582 16.2406 -0.897393 -0.126905 3.44293
2039 1 -9.26773 -8.34057 -10.693 17.3334 18.2606 15.9082 -1.26039 1.09898 1.29011
13560 1 -9.3629 -9.46571 -12.0146 -9.3629 -36.0669 14.5866 -0.770105 -1.46725 -1.26019
8457 1 -10.0191 -8.90315 -10.1721 43.1832 -8.90315 16.429 -1.43406 0.201806 1.12428
15296 1 -8.32749 -10.6572 -12.9535 -61.5298 42.5451 13.6476 0.890628 -1.26192 1.07189
13160 1 -9.6602 -7.39047 -10.5815 -9.6602 19.2107 42.6208 -0.940029 0.99203 1.39287
9813 1 -7.30116 -9.79867 -11.5132 45.9011 43.4036 -11.5132 -0.710318 1.87659 1.06889
1637 1 -8.48957 -9.20747 -11.3886 -35.0907 17.3937 -11.3886 -0.0542633 -0.127159 -0.201318
134 1 -7.22665 -8.93407 -11.9067 -7.22665 -35.5352 14.6944 -0.906852 -0.928089 -0.820907
2010 1 -10.235 -12.8927 -9.63963 -10.235 13.7084 43.5627 -0.0306207 0.588916 0.117315
4339 1 -11.6748 -6.72805 -9.875 14.9264 -6.72805 -63.0773 1.40647 0.687759 1.60288
9765 1 -12.053 -7.20881 -11.9052 -38.6541 -33.81 -38.5063 -0.146498 -0.717178 0.548743
12850 1 -7.19226 -11.5091 -7.67411 -33.7934 15.092 -60.8764 -2.58608 -0.287301 -0.461886
12605 1 -10.6216 -7.14362 -10.4952 -37.2227 -7.14362 16.1059 0.625436 -0.149559 -0.18353
2040 1 -9.95411 -8.52027 -11.3536 16.647 18.0809 15.2476 0.838231 0.364463 2.34167
8598 1 -7.51894 -12.3607 -9.4871 19.0822 14.2405 -36.0882 1.21208 -1.52229 0.0868292
1399 1 -12.7808 -7.23774 -8.27285 13.8203 -33.8389 18.3283 -0.653736 -1.33745 -1.60088
1638 1 -7.88269 -8.69515 -10.868 -34.4838 17.906 -10.868 0.228178 0.904371 0.61845
12894 1 -8.64674 -7.46103 -10.6823 -35.2479 -34.0622 -10.6823 -0.95847 0.705097 0.0594247
12893 1 -9.15163 -7.26163 -11.4815 -35.7528 -33.8628 -11.4815 1.09372 0.398831 -0.210843
8422 1 -12.9485 -9.41415 -11.1573 -12.9485 43.7881 -37.7584 0.652926 1.08336 -0.104709
4027 1 -6.98438 -6.89164 -10.363 -6.98438 -6.89164 16.2381 -0.556227 -0.624443 -0.613223
15266 1 -8.21255 -9.05388 -7.30997 18.3886 17.5473 19.2912 -0.21005 0.323928 -1.33692
8914 1 -12.5905 -12.4867 -10.5276 -12.5905 -65.689 -10.5276 0.537469 0.155154 0.0521562
2009 1 -9.76519 -13.0205 -10.5109 -9.76519 13.5807 42.6914 -1.00046 -1.90058 -1.0057
69 1 -7.84867 -8.28932 -13.2095 -7.84867 18.3118 13.3917 -0.842193 1.29403 -0.192521
12967 1 -10.8878 -7.26272 -13.2398 -37.489 -33.8639 -13.2398 -0.265221 -0.022691 -0.283051
4668 1 -7.76208 -7.60458 -9.1163 -34.3632 -7.60458 17.4848 -2.11302 0.851735 -0.839232
10341 1 -12.9158 -10.9847 -11.4852 13.6853 15.6165 -11.4852 -0.502996 0.737529 -0.275076
13519 1 -9.09642 -11.6385 -7.2395 -62.2987 -11.6385 -33.8406 -0.554151 2.42876 -1.59508
8597 1 -7.42528 -11.69 -8.78651 19.1759 14.9112 -35.3877 -0.201368 -0.857197 -0.756651
3852 1 -8.0355 -13.2197 -8.47749 -8.0355 -39.8208 44.7248 -0.464707 -0.336525 0.494376
11501 1 -7.22949 -7.92521 -8.20344 -7.22949 18.6759 18.3977 -1.5119 -0.382166 -0.68435
885 1 -12.3169 -9.39152 -8.87963 -65.5192 -9.39152 44.3227 0.201779 0.871056 0.418002
15390 1 -6.77991 -9.64659 -8.25546 -33.3811 16.9546 -61.4578 2.2453 0.585792 -1.32693
1889 1 -10.5517 -12.071 -11.9563 16.0494 -12.071 -11.9563 0.242375 1.1528 0.0942749
1890 1 -11.2785 -12.5084 -11.5917 15.3227 -12.5084 -11.5917 0.442148 -1.70455 1.17866
7610 1 -10.89 -11.1971 -10.5982 -37.4912 -11.1971 -10.5982 0.716013 -0.256904 0.813785
10396 1 -8.51338 -11.6159 -11.3062 -8.51338 14.9853 -11.3062 1.88924 -1.39872 -0.581079
3793 1 -10.2316 -12.0176 -8.81487 -63.4339 67.7858 17.7863 1.01261 -0.454284 0.57815
7593 1 -11.7646 -12.6161 -7.50047 14.8365 40.5862 -34.1016 -0.80706 0.0167447 -1.30274
3200 1 -12.1203 -11.6559 -11.1671 14.4809 -11.6559 15.4341 -0.19802 -1.53116 -0.00710344
7605 1 -12.0231 -10.4064 -11.2389 14.5781 16.1947 15.3623 0.430326 0.435892 -0.873065
241 1 -10.6888 -10.1175 -9.35563 15.9123 16.4837 17.2455 -0.366463 -0.332808 -2.76791
14730 1 -10.8432 -9.19382 -10.8569 15.758 44.0085 -64.0592 -0.388109 -0.353552 -0.599432
14729 1 -11.3519 -9.97999 -10.5318 15.2493 43.2223 -63.7341 -2.03459 -0.192224 0.434796
479 1 -8.837 -10.3651 -10.371 44.3653 16.236 42.8313 1.6555 0.500027 1.35367
480 1 -8.28328 -10.4831 -9.51547 44.919 16.1181 43.6868 -0.58719 -1.2529 -1.10987
7609 1 -10.0711 -11.0007 -10.1438 -36.6722 -11.0007 -10.1438 1.8684 -1.40576 0.0996642
13604 1 -8.43964 -11.8586 -9.40406 44.7627 41.3437 17.1971 0.173314 -0.530197 -0.256068
3794 1 -10.7228 -11.9053 -9.66383 -63.9251 67.8982 16.9373 -0.580462 0.347572 2.27263
4114 1 -12.9558 -8.54259 -9.37831 40.2465 -35.1437 43.824 0.146812 -0.256618 -0.855875
8458 1 -10.6095 -8.40849 -9.61012 42.5928 -8.40849 16.991 -0.480117 -0.809217 -0.932135
12393 1 -10.03 -9.94696 -10.2384 -36.6312 -9.94696 42.9638 -1.19881 0.60057 -1.31326
3866 1 -9.90477 -10.0399 -11.3986 16.6964 16.5613 15.2026 -0.802727 0.0545222 -0.669318
15684 1 -7.72724 -8.79726 -8.77252 -34.3284 44.405 -8.77252 -0.556633 -1.20916 -0.85226
3865 1 -9.37804 -9.39879 -10.895 17.2231 17.2024 15.7062 -1.70805 -0.774719 -1.6014
1325 1 -8.16944 -6.91061 -9.80297 -8.16944 -6.91061 16.7982 -0.106123 0.364929 2.04271
5129 1 -8.80153 -9.04962 -8.88734 -8.80153 -9.04962 17.7138 0.00850138 -0.284489 1.70094
5130 1 -8.57868 -8.38207 -9.5386 -8.57868 -8.38207 17.0625 -0.577413 -1.12233 1.01823
10916 1 -11.8005 -7.46246 -8.71983 14.8006 -60.6648 -8.71983 0.233481 -0.859943 1.02031
3041 1 -11.9239 -13.1626 -11.0089 -38.525 -13.1626 -11.0089 -1.05976 -0.996561 -0.00304348
5287 1 -12.2161 -6.63981 -7.47585 -12.2161 -6.63981 45.7264 1.67571 0.434912 -0.872219
12578 1 -10.255 -13.1069 -7.43975 -63.4573 -13.1069 19.1614 0.0139365 0.228511 -0.146493
13313 1 -10.2883 -9.1918 -8.95112 -36.8895 -9.1918 -8.95112 -0.490161 -0.552084 0.759805
13314 1 -9.56026 -8.70987 -9.33305 -36.1614 -8.70987 -9.33305 -1.47645 0.560625 0.411393
4269 1 -12.5517 -9.52161 -9.93996 67.2518 -9.52161 16.6612 -0.489921 -0.965338 -0.124945
3018 1 -9.55845 -13.0907 -8.60358 -9.55845 -39.6918 17.9976 -0.179514 -1.03836 -1.37704
5288 1 -11.3941 -7.0322 -7.87915 -11.3941 -7.0322 45.3231 -1.80401 -1.38448 -0.674275
14337 1 -10.0221 -6.78504 -9.40112 -10.0221 19.8161 43.8012 0.0333977 -1.24004 -0.41623
14451 1 -10.865 -9.15931 -6.75537 15.7362 17.4418 -6.75537 0.781842 0.634898 -0.892487
10491 1 -10.0766 -6.81172 -11.4125 -63.2789 46.3906 15.1887 -0.129162 1.479 -1.40946
14779 1 -7.88366 -13.2981 -7.29551 -7.88366 -13.2981 45.9068 1.1381 0.14864 0.453202
5422 1 -9.65123 -12.2314 -12.8424 -9.65123 14.3697 -39.4435 0.241343 -0.152303 0.650508
15662 1 -12.654 -11.908 -12.3796 13.9471 -11.908 -38.9807 0.574126 -0.294511 0.358744
2911 1 -9.61632 -12.3248 -7.6786 16.9848 14.2763 18.9226 0.493254 -0.844285 -2.00404
4667 1 -6.89722 -7.63376 -9.53329 -33.4984 -7.63376 17.0679 0.0335876 -0.271904 -0.393861
13520 1 -8.38827 -12.2362 -7.08275 -61.5906 -12.2362 -33.6839 -0.86415 0.183778 -1.1485
8473 1 -10.5906 -7.29071 -7.17596 16.0106 -7.29071 -7.17596 1.0279 -1.87799 1.33169
15832 1 -6.81017 -9.02093 -10.5199 -33.4113 -9.02093 42.6824 -1.64644 0.348171 -0.649279
8684 1 -7.91038 -9.49445 -9.43454 -34.5115 -36.0956 17.1666 0.285016 0.0631293 -0.810101
6065 1 -12.4352 -8.18829 -8.2676 14.166 18.4129 18.3335 1.80428 -1.24366 1.71442
3393 1 -12.5046 -11.3063 -9.55731 14.0965 15.2948 -62.7596 0.410274 -1.78916 0.759843
3394 1 -11.8016 -11.8704 -9.87227 14.7996 14.7308 -63.0746 -2.31688 0.314433 -2.00996
13469 1 -10.2842 -10.9541 -7.69249 -10.2842 -10.9541 -34.2936 0.991617 -0.327432 0.184782
10914 1 -11.3468 -10.7664 -8.09582 41.8555 -37.3676 -34.697 -0.494871 -0.00700598 1.65286
2912 1 -8.94115 -12.9887 -7.6133 17.66 13.6124 18.9878 0.476368 -0.432459 -0.303398
10116 1 -9.5167 -11.2687 -8.47673 17.0844 15.3325 71.3267 -0.228794 -0.092039 -2.77069
3851 1 -8.66726 -12.7565 -9.00671 -8.66726 -39.3577 44.1956 -0.850788 0.110801 1.06191
9825 1 -9.12962 -9.43993 -7.01673 -9.12962 -9.43993 19.5844 0.962357 0.690138 1.16179
12849 1 -8.07293 -11.2206 -7.39462 -34.6741 15.3806 -60.5969 -0.178672 0.772745 0.547218
6043 1 -9.8182 -10.9245 -6.68117 -36.4194 15.6767 -59.8835 0.888294 0.0540617 -0.451283
8076 1 -11.1321 -9.67717 -8.55887 15.469 43.5251 18.0423 2.01891 0.390769 0.823242
11581 1 -10.262 -10.2328 -8.41541 -36.8632 42.9695 71.388 -0.623624 -1.3036 -0.806964
11582 1 -10.5058 -11.06 -8.82778 -37.107 42.1423 70.9757 -1.52516 -0.777992 0.496434
11449 1 -11.201 -9.3018 -9.60789 -11.201 17.2993 -36.209 -0.0440945 0.23219 -0.385239
10115 1 -9.24656 -10.8686 -9.30318 17.3546 15.7326 70.5003 1.81707 2.92903 1.0678
10100 1 -7.38795 -10.4115 -7.60635 -7.38795 16.1896 45.5959 0.676869 0.471486 -0.351149
8333 1 -7.75396 -7.83077 -10.4271 -7.75396 -7.83077 -63.6294 1.58325 -0.466238 -0.426257
8665 1 -7.42789 -12.5273 -7.84527 -7.42789 -39.1284 -34.4464 1.02423 0.70009 -1.05771
14323 1 -13.0143 -9.01785 -12.2356 13.5868 44.1844 14.3656 0.586483 -1.99399 0.424698
6544 1 -12.1836 -7.76943 -7.07697 14.4176 18.8317 -7.07697 0.515104 1.17322 -0.437455
242 1 -11.3447 -10.8036 -9.56979 15.2564 15.7975 17.0314 -0.683882 -1.65447 -0.866421
11450 1 -11.6943 -8.6289 -9.05972 -11.6943 17.9722 -35.6609 0.374692 0.459229 0.143175
4630 1 -11.2782 -8.18262 -7.27276 41.9241 -8.18262 -33.8739 -0.870453 -0.461443 -0.39224
12394 1 -9.64638 -9.91961 -9.39927 -36.2475 -9.91961 43.803 -0.794493 1.21676 -0.605101
15683 1 -8.34408 -8.11739 -8.45434 -34.9452 45.0849 -8.45434 -0.313463 0.654302 -0.0859788
8334 1 -7.53892 -8.48699 -9.73592 -7.53892 -8.48699 -62.9382 -0.998831 0.192478 -0.190356
133 1 -7.13032 -9.22255 -12.8119 -7.13032 -35.8237 13.7893 -0.151759 0.659716 -0.588782
5500 1 -10.8797 -7.47254 -9.42757 68.9237 -7.47254 -9.42757 0.0992004 0.965941 -0.468129
234 1 -12.9818 -11.805 -7.21596 40.2205 41.3973 -7.21596 -0.463649 0.00508447 0.11483
12458 1 -9.15947 -8.42706 -7.67899 -9.15947 18.1741 -34.2801 -0.463691 -0.880889 -1.96799
335 1 -12.5927 -10.7194 -7.82043 14.0085 -37.3206 18.7807 -0.373321 1.21878 -0.852891
12577 1 -10.6537 -12.768 -8.21958 -63.856 -12.768 18.3816 0.459753 1.3145 -1.97766
12457 1 -8.92759 -7.47862 -7.56633 -8.92759 19.1225 -34.1675 -0.308735 -1.49873 1.35105
11502 1 -7.8382 -7.16427 -8.18306 -7.8382 19.4369 18.4181 -0.197604 1.31846 0.382992
5394 1 -10.7847 -12.0134 -7.17947 15.8164 -12.0134 -7.17947 -2.22599 -0.129722 0.351243
13017 1 -13.0324 -7.18864 -12.2704 13.5687 -33.7898 -12.2704 -0.201909 1.53948 0.365986
15831 1 -6.65734 -8.27909 -11.1274 -33.2585 -8.27909 42.0749 -0.400838 1.05752 0.757883
11571 1 -7.24819 -8.87285 -7.70996 -7.24819 17.7283 -34.3111 -1.21051 -0.366017 -0.22756
4270 1 -12.8486 -10.2492 -9.3566 66.9549 -10.2492 17.2445 -0.454206 0.938389 0.835952
10416 1 -11.6622 -11.5222 -7.41896 -38.2634 -11.5222 -34.0201 0.185809 -0.141095 1.00001
7540 1 -10.4097 -7.0736 -8.32323 -10.4097 19.5275 18.2779 -0.495438 -1.52236 0.152561
7389 1 -7.22031 -7.178 -13.1709 -33.8215 19.4231 -13.1709 0.17219 0.264333 -1.21853
11422 1 -6.97562 -12.7956 -11.0257 19.6255 13.8056 -37.6269 -0.333774 1.59514 0.629507
10431 1 -8.69254 -12.165 -8.15845 -35.2937 -12.165 18.4427 0.160012 -0.453804 -0.120473
7830 1 -8.13817 -7.63186 -11.4884 45.0641 -7.63186 -11.4884 0.192017 0.915375 -1.17806
15317 1 -7.32569 -7.27834 -6.82851 -7.32569 19.3228 -6.82851 -0.254613 -1.24627 1.06981
13445 1 -9.98786 -6.9041 -12.748 -9.98786 19.697 40.4542 -0.0772472 -0.584718 -2.64927
14376 1 -9.58564 -8.63195 -12.7307 -9.58564 44.5703 -12.7307 -0.41584 -1.04187 -1.26714
10913 1 -11.9276 -11.3558 -8.52331 41.2747 -37.9569 -35.1245 -0.47038 0.552073 0.182588
15447 1 -7.76314 -10.8606 -10.9942 18.838 -10.8606 15.6069 0.221527 -1.61962 -0.220533
13470 1 -10.9283 -10.9951 -6.92714 -10.9283 -10.9951 -33.5283 0.15366 -0.957332 -0.258605
13105 1 -8.48193 -10.2565 -8.51061 18.1192 -36.8577 18.0905 -1.17835 0.717499 0.745507
14338 1 -9.69184 -7.66044 -9.25503 -9.69184 18.9407 43.9473 0.43583 1.43332 0.0637335
13557 1 -6.66778 -10.1258 -10.6009 19.9334 16.4753 -37.202 1.15721 0.013311 -0.359566
10432 1 -8.42926 -11.2349 -8.41752 -35.0304 -11.2349 18.1836 -0.137496 0.370513 -0.825913
4629 1 -11.1415 -8.26089 -8.17713 42.0608 -8.26089 -34.7783 0.254106 1.48691 -1.55846
12606 1 -10.7625 -8.05003 -10.7171 -37.3637 -8.05003 15.884 0.487367 0.463141 0.137653
13657 1 -11.7772 -8.98285 -7.89938 -11.7772 -8.98285 -34.5005 -0.458314 -0.771457 -0.213043
6044 1 -9.29851 -10.6122 -7.43793 -35.8997 15.989 -60.6402 -1.44451 -1.41743 0.879383
8075 1 -10.4993 -9.25094 -7.93771 16.1019 43.9514 18.6634 0.985302 -0.565548 -0.653813
9220 1 -9.66063 -7.7887 -6.82286 -9.66063 -34.3898 -33.424 -2.4062 -0.736118 0.0456127
9826 1 -9.9771 -9.82971 -7.22564 -9.9771 -9.82971 19.3755 1.93104 0.510983 2.2732
9814 1 -7.76317 -9.62748 -10.7217 45.4391 43.5748 -10.7217 -0.854774 0.837415 -0.247509
70 1 -8.12188 -8.74325 -12.3971 -8.12188 17.8579 14.204 -1.00004 -0.29743 -0.206842
13106 1 -9.27616 -9.76784 -8.21817 17.325 -36.369 18.383 -1.63688 -0.0724817 -0.53582
10492 1 -10.7137 -7.50749 -11.8121 -63.916 45.6948 14.7891 -0.552663 1.72337 1.60285
13852 1 -10.7438 -8.25665 -13.0987 -10.7438 -8.25665 40.1036 1.36548 0.0388315 0.392988
10099 1 -7.89636 -9.70719 -7.94931 -7.89636 16.894 45.253 0.977746 1.5513 -0.644371
1729 1 -13.1168 -8.44394 -7.16104 -13.1168 18.1572 -7.16104 0.879084 0.727811 0.0371342
9219 1 -10.0616 -8.49914 -7.31682 -10.0616 -35.1003 -33.918 0.744031 -0.0357586 1.04434
15577 1 -6.90637 -12.6744 -13.0699 -6.90637 -12.6744 40.1324 2.22038 1.89015 -1.82414
9344 1 -8.70561 -7.19118 -8.80877 97.699 46.0111 -35.4099 -1.60598 -1.29147 0.316487
3078 1 -7.97609 -7.87228 -7.34089 18.6251 18.7289 -7.34089 0.9004 -1.73595 0.506491
7539 1 -10.1182 -7.98206 -8.2192 -10.1182 18.6191 18.3819 1.37161 1.32144 1.36663
1936 1 -6.76602 -8.26564 -12.871 -6.76602 -34.8668 66.9325 0.331841 0.52962 -2.46354
4753 1 -11.4543 -9.96194 -7.06455 -11.4543 43.2404 19.5366 1.37745 -1.32988 -0.577255
13446 1 -9.21956 -7.07936 -13.2581 -9.21956 19.5218 39.9441 -1.05202 1.39049 0.446437
14375 1 -8.74403 -8.91275 -13.0801 -8.74403 44.2895 -13.0801 -0.955335 -1.50844 -1.5751
3024 1 -6.97976 -11.7598 -12.3934 -33.5809 -11.7598 -12.3934 1.85895 0.858212 0.425169
4609 1 -6.93655 -10.8647 -11.9124 19.6646 15.7365 -11.9124 -0.793845 0.897875 0.212484
15318 1 -6.755 -8.05916 -7.1028 -6.755 18.542 -7.1028 0.0164207 2.04337 0.239614
13457 1 -12.611 -9.54807 -7.679 -12.611 -9.54807 45.5233 0.0576655 -0.554087 0.476636
19 1 -6.91275 -10.0011 -9.29407 19.6884 -10.0011 17.3071 -0.695236 -0.510552 0.48679
1444 1 -6.71206 -7.16321 -11.6667 19.8891 -33.7644 -11.6667 1.07159 0.250254 1.57298
3471 1 -8.61419 -6.86592 -12.325 -8.61419 46.3364 14.2761 0.510005 -2.05089 -0.0243601
13155 1 -9.62825 -13.1625 -12.2072 -9.62825 13.4387 -38.8083 -0.257353 1.61381 0.419615
14912 1 -7.33866 -12.0584 -6.83689 99.0659 14.5428 19.7643 0.0808256 -0.299913 -0.772908
9660 1 -9.42059 -12.9268 -6.70847 17.1806 40.2755 19.8927 -0.931907 -0.898182 0.407169
3077 1 -8.65931 -7.91467 -6.6649 17.9418 18.6865 -6.6649 0.683966 2.55564 0.548559
5393 1 -9.94019 -12.0575 -6.76969 16.661 -12.0575 -6.76969 -0.741851 -0.0238595 0.640785
15265 1 -8.2643 -9.95967 -6.87026 18.3369 16.6415 19.7309 0.121015 -0.524164 -2.10475
5303 1 -11.6238 -8.79096 -13.0707 -11.6238 -8.79096 13.5304 0.740105 1.04506 -0.349332
15633 1 -11.6413 -11.8495 -13.2615 -38.2425 -11.8495 13.3397 -0.679434 -0.365642 0.538882
14004 1 -7.97502 -11.6224 -13.1821 18.6261 -11.6224 40.0202 -0.383431 -0.440859 1.74354
10935 1 -11.525 -11.0459 -5.60955 -11.525 15.5552 -32.2107 0.491688 -0.418613 1.26953
7914 1 -7.75041 -8.00772 -6.07613 -7.75041 -61.21 20.525 0.819417 -1.99806 -0.171664
8717 1 -7.57711 -13.1605 -4.19123 19.024 13.4406 -4.19123 -0.0825814 0.81759 0.96832
8292 1 -9.43077 -11.8552 -5.06136 -9.43077 -11.8552 -31.6625 -0.220225 0.135589 -0.829109
4938 1 -10.2606 -12.6191 -5.47816 16.3406 -12.6191 -32.0793 -1.00555 0.128001 -0.111102
12635 1 -8.44224 -12.0057 -5.24197 18.1589 14.5955 21.3592 -0.305773 0.507325 -0.132876
12636 1 -8.03771 -11.9068 -4.35903 18.5634 14.6943 22.2421 -2.86297 -0.480533 -0.0522793
1020 1 -11.8096 -11.1101 -4.05988 -38.4108 -37.7113 22.5413 -0.0347987 0.546972 -0.311169
6110 1 -7.76067 -13.2605 -6.16514 18.8405 -13.2605 -32.7663 0.647269 0.30442 0.147313
7668 1 -12.9455 -9.47646 -6.41312 -12.9455 43.7258 46.7892 0.98439 0.33057 -0.502424
10936 1 -11.3488 -10.4496 -4.91414 -11.3488 16.1515 -31.5153 -0.909084 -0.935862 2.47167
12275 1 -8.8746 -7.3373 -0.508771 17.7265 -7.3373 -27.1099 -0.942635 0.748261 0.441214
1773 1 -13.3077 -11.7291 -4.729 -13.3077 -11.7291 -4.729 -0.930459 -2.73552 -2.63853
7362 1 -10.5296 -11.6678 -5.88139 -10.5296 -38.2689 -32.4825 -0.0999621 -0.917844 -0.50961
97 1 -10.4229 -7.35502 -5.60508 -10.4229 45.8473 20.9961 0.0304799 0.2611 1.53872
10205 1 -8.96872 -11.1844 -4.46584 -8.96872 -64.3867 -4.46584 -0.534455 -1.15817 0.360616
8291 1 -9.34003 -11.3236 -5.83851 -9.34003 -11.3236 -32.4397 0.354116 -1.9864 -0.364573
301 1 -8.28227 -10.9982 -5.30446 -8.28227 42.204 -5.30446 -0.312561 -1.07777 0.673982
91 1 -8.96249 -10.2114 -5.66716 17.6387 -10.2114 20.934 0.888589 0.00537858 1.60278
302 1 -7.53035 -10.5973 -5.70332 -7.53035 42.605 -5.70332 -0.0628853 0.478064 -0.315348
92 1 -9.63853 -10.1094 -4.96815 16.9626 -10.1094 21.633 -0.153264 -0.665583 -1.46025
7184 1 -10.9016 -10.2887 -6.20311 -10.9016 16.3125 20.398 -0.005848 0.993389 0.528967
15721 1 -7.22834 -8.08748 -3.55139 -7.22834 18.5137 23.0498 1.05535 1.21741 -0.613823
12518 1 -11.7489 -8.78535 -3.7474 14.8523 -8.78535 -3.7474 -0.334328 0.752074 -0.722792
6543 1 -11.8298 -8.00826 -6.28854 14.7713 18.5929 -6.28854 -0.91712 1.19598 -1.14828
12034 1 -12.7475 -8.94325 -3.51923 13.8537 -8.94325 -30.1204 0.573537 -0.415806 0.928279
7361 1 -10.3364 -10.7894 -5.5306 -10.3364 -37.3906 -32.1317 0.271479 -1.88506 0.765054
9857 1 -9.45982 -10.7227 -3.59977 -9.45982 42.4796 -3.59977 -0.155131 0.0697847 0.00155067
7183 1 -9.88045 -10.0618 -6.17471 -9.88045 16.5393 20.4264 -0.59395 -0.460739 0.30019
13857 1 -8.51192 -12.9629 -3.88354 18.0892 40.2394 49.3187 -2.57331 -0.00736131 -0.0379818
5953 1 -9.59076 -8.7614 -5.38742 -9.59076 44.4409 -31.9886 0.658547 0.197749 0.596708
12033 1 -12.3582 -9.3252 -2.79001 14.2429 -9.3252 -29.3912 0.356777 1.02237 -0.0762279
7489 1 -12.8788 -12.1945 -1.07815 13.7224 41.0078 -1.07815 0.683203 0.661134 0.542877
8456 1 -7.32552 -9.4918 -5.54664 -87.129 -9.4918 -5.54664 -0.932768 -0.773962 -0.91372
10618 1 -6.87357 -12.4583 -2.0691 19.7276 14.1429 -55.2714 1.17005 -0.16024 -0.209249
7688 1 -11.9679 -8.03911 -5.06773 -38.5691 18.562 -31.6689 2.38233 0.969696 -0.343861
5954 1 -9.54549 -7.88771 -5.76851 -9.54549 45.3146 -32.3697 0.579539 -0.958447 -0.324246
10208 1 -8.01691 -8.70161 -5.3023 -34.6181 -35.3028 -5.3023 -1.02958 0.482552 -0.419683
3608 1 -6.91269 -8.38278 -5.55934 -33.5138 -8.38278 21.0418 -1.32606 1.4382 -0.13789
1584 1 -12.9923 -7.7207 -5.71112 -12.9923 -7.7207 20.89 0.668251 -0.0647948 1.32264
7882 1 -11.1385 -13.151 -1.44757 -11.1385 -13.151 -1.44757 1.58132 -0.0664383 -0.86528
8639 1 -9.90834 -13.1396 -2.66535 -89.7118 66.6639 23.9358 -0.462074 0.169049 -1.42983
7684 1 -9.0773 -6.6731 -1.46693 17.5238 19.9281 25.1342 0.0590839 -0.495538 0.877373
10763 1 -11.3262 -7.56638 -2.46564 15.275 -60.7687 -2.46564 0.27828 1.54308 -2.64698
1471 1 -12.3145 -6.75059 -5.27063 40.8878 -6.75059 -5.27063 -1.50217 -1.47641 0.0038984
9278 1 -13.2004 -10.2091 -0.264456 66.6031 -10.2091 -0.264456 -0.45195 0.75198 -0.83303
9507 1 -13.1264 -8.56018 -4.97145 -39.7276 44.6421 48.2308 0.479741 0.971689 -1.42021
14063 1 -8.95078 -12.5054 -2.98684 44.2515 14.0958 50.2155 0.229975 0.475706 -0.536352
14859 1 -9.67328 -12.7794 -0.621754 16.9279 -12.7794 -27.2229 0.0358953 -0.620032 1.23278
15842 1 -11.6906 -7.18286 -1.20184 -11.6906 -7.18286 -1.20184 -1.36365 0.141548 0.464183
14452 1 -10.198 -8.99662 -6.14193 16.4031 17.6045 -6.14193 0.279554 -1.00273 1.14634
15816 1 -10.6788 -11.7448 -4.86583 15.9223 41.4575 21.7353 0.654372 -0.262152 0.698498
12216 1 -10.1011 -12.1576 -3.67576 -10.1011 -12.1576 -30.2769 -1.39391 0.0807781 -2.18994
2959 1 -8.83771 -11.4252 -3.27038 44.3646 41.7771 -3.27038 0.333735 0.28593 0.0240714
13858 1 -8.88149 -12.8977 -4.7624 17.7197 40.3046 48.4399 0.239969 0.213805 0.242547
2960 1 -9.10024 -12.093 -3.97138 44.102 41.1093 -3.97138 -0.818255 0.145027 -1.76069
15624 1 -12.9329 -10.8625 -2.54063 -12.9329 -10.8625 24.0605 0.590638 0.409082 -0.484279
169 1 -12.2332 -10.987 -4.94859 40.9691 42.2153 -31.5497 -0.2851 0.158921 -2.13342
15815 1 -11.0237 -12.4934 -4.41468 15.5774 40.7089 22.1865 -0.347753 -0.525344 0.353899
1116 1 -12.8646 -12.5445 -3.65409 -66.0669 14.0567 49.5482 0.15438 -0.638858 -0.600172
11434 1 -12.0307 -12.1198 -4.15651 14.5704 14.4814 -4.15651 0.412661 -0.381825 0.891424
11433 1 -11.3515 -11.9001 -3.47938 15.2496 14.7011 -3.47938 0.456239 1.35495 -0.321545
11632 1 -11.9996 -10.8318 -2.06897 41.2027 -37.4329 -2.06897 1.17861 0.429964 -1.17875
12215 1 -10.1594 -11.5264 -2.98711 -10.1594 -11.5264 -29.5883 0.261477 -0.010425 -0.567899
10206 1 -8.11555 -10.9662 -3.93707 -8.11555 -64.1685 -3.93707 -0.399963 0.0905033 0.0682351
6281 1 -7.9542 -9.40797 -3.72595 -34.5553 -36.0091 -3.72595 -0.531036 -0.185965 -0.292581
8524 1 -9.1729 -12.6931 -1.67527 -9.1729 -12.6931 24.9259 1.60625 0.363773 -0.411996
14914 1 -12.382 -12.9055 -6.31644 14.2191 40.2968 -6.31644 -1.87513 1.88975 -1.05432
15838 1 -7.047 -8.89581 -3.04768 -7.047 -8.89581 23.5535 -0.765092 0.168224 1.03606
5930 1 -10.7795 -10.5104 -3.37992 -10.7795 -10.5104 23.2212 -0.330449 -1.28242 0.643201
7687 1 -11.5812 -7.64318 -4.28911 -38.1823 18.958 -30.8903 -0.771273 -0.906453 0.220833
5929 1 -10.262 -11.0736 -3.93497 -10.262 -11.0736 22.6662 -0.217631 -0.519889 0.844653
9858 1 -9.97434 -9.99211 -3.9058 -9.97434 43.2102 -3.9058 0.924657 -1.90602 -2.07932
6161 1 -8.93513 -9.90666 -4.2041 -35.5363 43.2956 -4.2041 -1.02484 0.036096 0.0638205
6162 1 -8.93118 -9.17996 -4.7984 -35.5323 44.0223 -4.7984 -0.182407 -0.665838 0.857158
4823 1 -8.25067 -8.32495 -4.27497 -34.8518 -34.9261 48.9273 -0.392204 -0.231329 -1.55736
5432 1 -11.8779 -9.35549 -5.87555 -11.8779 -9.35549 47.3267 -0.788602 -1.31394 -1.64174
14025 1 -10.7598 -13.1916 -3.70322 -10.7598 13.4096 -3.70322 -1.06212 1.42193 0.600944
8969 1 -11.2218 -8.94188 -0.280642 15.3794 -8.94188 -26.8818 0.365959 -1.67693 0.213078
7464 1 -7.77578 -6.79556 -0.680539 18.8254 -6.79556 25.9206 -0.82729 -0.266718 -0.557694
10943 1 -12.5286 -8.15336 -4.15322 14.0725 45.0489 -4.15322 -1.64785 -1.21588 0.145089
870 1 -10.6558 -8.08681 -4.69044 -63.8581 18.5143 21.9107 0.426341 1.87246 0.165782
10944 1 -12.7765 -7.41703 -4.69138 13.8246 45.7853 -4.69138 0.894789 1.20291 0.973759
869 1 -10.9118 -8.72189 -5.33351 -64.1141 17.8793 21.2676 1.14087 0.538753 0.85789
6362 1 -9.20864 -8.69282 -3.78621 -9.20864 -8.69282 -3.78621 0.0499407 0.810608 0.354818
13039 1 -12.3102 -11.5715 -6.39906 -38.9113 -11.5715 20.2021 0.566842 1.8463 0.645132
98 1 -10.7778 -7.9875 -6.20139 -10.7778 45.2148 20.3998 0.409039 0.556608 1.10364
10764 1 -10.527 -7.19329 -2.77721 16.0741 -60.3956 -2.77721 -0.694328 1.7858 -0.358322
4416 1 -12.5188 -9.95681 -2.00006 -65.7211 16.6443 -28.6012 0.974122 0.551139 0.526807