ITEM: TIMESTEP
85000
ITEM: NUMBER OF ATOMS
16000
ITEM: BOX BOUNDS pp pp pp
-1.3300573168565002e+01 1.3300573168565002e+01
-1.3300573168565002e+01 1.3300573168565002e+01
-1.3300573168565002e+01 1.3300573168565002e+01
ITEM: ATOMS id type x y z xu yu zu vx vy vz
15099 1 -8.53614 -10.2615 -12.2118 -35.1373 -10.2615 -12.2118 -0.0425343 0.110206 2.06079
5885 1 -11.052 -10.6576 -7.88343 15.5492 15.9435 18.7177 -0.497557 0.491184 0.717488
2730 1 -10.4723 -12.9653 -8.12748 69.3312 -12.9653 -8.12748 -0.600064 -0.719239 0.330786
5819 1 -11.8345 -10.4868 -11.2756 -11.8345 -10.4868 41.9267 -0.856127 0.405949 -3.04518
12417 1 -12.8684 -8.61584 -8.96775 -12.8684 -8.61584 17.6334 -0.200469 0.568265 -1.78524
5825 1 -11.2254 -12.1928 -13.2082 41.9769 14.4083 -13.2082 -0.0602286 -2.3667 -2.36894
3820 1 -10.5101 -12.8999 -13.2861 -10.5101 -12.8999 -13.2861 0.284584 -1.28039 -0.287168
11421 1 -8.64607 -13.1354 -10.0314 17.9551 13.4658 -36.6325 1.74959 -0.558291 -0.761141
277 1 -12.4418 -12.2744 -11.1541 14.1594 -12.2744 -11.1541 0.836013 -0.37424 -0.0294998
13301 1 -12.7267 -10.4911 -7.47748 -39.3279 16.11 -34.0786 -0.105696 0.881301 -0.809968
3199 1 -11.9371 -10.1484 -13.2933 14.6641 -10.1484 13.3078 1.21167 1.32043 0.355255
7390 1 -6.92877 -7.61189 -13.1805 -33.5299 18.9893 -13.1805 1.24745 -0.165496 1.0356
546 1 -11.9782 -11.5107 -11.605 -38.5793 15.0904 -64.8073 0.632455 -1.24377 -1.5235
3200 1 -11.1277 -9.60805 -13.1268 15.4735 -9.60805 13.4743 -0.713782 0.374571 1.44553
11746 1 -13.0804 -11.7122 -11.8889 13.5207 -11.7122 14.7123 -1.32973 -0.926386 1.55093
14682 1 -10.5066 -10.8219 -12.5461 42.6957 -10.8219 -12.5461 -0.610918 1.52604 1.87394
10416 1 -13.0023 -12.6951 -9.91046 -39.6034 -12.6951 -36.5116 -2.16265 0.0462366 0.206046
14577 1 -8.78163 -11.8213 -12.7115 17.8195 14.7799 -39.3127 0.639826 -0.436444 0.559888
3791 1 -7.45825 -10.4762 -11.4841 -34.0594 -10.4762 -11.4841 -1.3504 0.121643 -0.163556
15083 1 -7.67907 -11.7691 -12.7539 18.9221 -11.7691 -12.7539 -0.783454 -1.23051 0.971562
10431 1 -8.22796 -12.8377 -7.09259 -34.8291 -12.8377 19.5086 1.00099 1.09357 0.0835578
13557 1 -8.27383 -9.36224 -13.1242 18.3273 17.2389 -39.7253 1.10728 0.875398 -1.05443
2729 1 -11.3314 -12.8907 -8.56148 68.472 -12.8907 -8.56148 0.812378 -0.322895 -1.07156
4451 1 -7.86955 -8.01771 -13.1022 18.7316 18.5834 13.499 0.2775 0.61691 0.719738
4342 1 -13.1221 -7.76732 -11.8331 -39.7233 18.8338 -38.4342 1.69385 -0.207672 -1.25262
11745 1 -12.6872 -10.8332 -12.0048 13.9139 -10.8332 14.5964 1.26716 -1.64652 -0.388962
14291 1 -12.7244 -11.6167 -7.22324 -12.7244 41.5855 -7.22324 -1.10156 -0.664888 -0.649175
8542 1 -10.7603 -8.61061 -12.8253 -10.7603 -8.61061 -12.8253 -0.634667 0.668614 1.33668
15100 1 -8.54893 -10.6574 -13.0583 -35.1501 -10.6574 -13.0583 0.275214 2.20387 -0.709785
14292 1 -12.432 -12.5627 -7.31628 -12.432 40.6396 -7.31628 -1.31315 1.23675 1.26557
3792 1 -7.56938 -10.5214 -12.406 -34.1705 -10.5214 -12.406 -0.412934 1.34885 -1.43584
11137 1 -11.031 -11.9354 -11.1558 42.1713 14.6657 -11.1558 0.43531 0.325274 -0.430739
6487 1 -9.73855 -6.76476 -12.5941 -9.73855 -6.76476 -12.5941 -0.776914 -0.251509 1.15009
7389 1 -6.93895 -8.53029 -13.0975 -33.5401 18.0709 -13.0975 1.40811 -0.135938 1.22234
8541 1 -11.5936 -8.68587 -13.1928 -11.5936 -8.68587 -13.1928 0.926282 1.4434 -1.26674
336 1 -13.1832 -7.64503 -7.67552 13.418 -34.2462 18.9256 0.820644 -0.800938 -0.779911
3794 1 -8.91564 -12.2508 -9.2809 -62.1179 67.5526 17.3202 0.193642 0.0317865 0.950866
13558 1 -8.15453 -9.26616 -12.1542 18.4466 17.335 -38.7553 1.0894 -0.317978 0.850153
8914 1 -12.513 -12.5901 -13.0911 -12.513 -65.7924 -13.0911 -0.0434147 1.62947 -1.27739
6066 1 -12.678 -9.03459 -11.8657 13.9232 17.5666 14.7355 -0.25476 0.388882 1.15286
10016 1 -12.2447 -10.1118 -8.56267 -12.2447 16.4894 -8.56267 -0.0384922 0.311923 0.0838998
12849 1 -7.26326 -11.5848 -6.90702 -33.8644 15.0163 -60.1093 1.0235 -0.10375 -0.218658
9766 1 -12.1168 -7.43379 -11.6607 -38.718 -34.0349 -38.2618 0.208558 0.927173 -2.0332
4685 1 -11.5863 -13.1942 -7.60175 15.0149 -39.7953 18.9994 0.157256 0.439362 0.741269
14525 1 -6.69716 -11.2124 -11.2204 46.5051 15.3887 15.3808 -2.02226 0.515305 0.131591
11138 1 -11.5423 -12.778 -10.9038 41.66 13.8232 -10.9038 0.815904 1.42548 -0.987719
9343 1 -8.76041 -7.05963 -8.15069 97.6442 46.1427 -34.7518 -0.381687 -2.8721 0.567526
6962 1 -12.0761 -12.613 -9.33984 -12.0761 40.5893 -9.33984 -0.15082 -0.188852 2.54532
1092 1 -12.6137 -7.94652 -10.7064 40.5886 18.6546 69.097 2.43078 -0.138413 1.37274
10030 1 -9.36403 -13.1974 -8.18104 -35.9652 13.4038 -8.18104 0.870238 0.147487 -0.58961
6110 1 -7.72741 -12.1118 -7.76551 18.8737 -12.1118 -34.3667 -1.60262 -0.846596 1.27762
5953 1 -8.36259 -8.89805 -7.05602 -8.36259 44.3042 -33.6572 -0.868498 1.13755 0.844024
14526 1 -7.26412 -10.968 -10.4163 45.9382 15.6331 16.1848 0.125829 -0.078578 -1.8063
8913 1 -12.2885 -11.8981 -12.5118 -12.2885 -65.1004 -12.5118 -0.587019 1.28127 -0.443119
14730 1 -9.69249 -13.2473 -10.4748 16.9087 39.955 -63.6771 -1.24757 0.0198185 -0.747819
545 1 -11.595 -11.1733 -12.427 -38.1962 15.4278 -65.6293 -0.207507 0.475508 0.580623
335 1 -12.9464 -7.66435 -8.65953 13.6548 -34.2655 17.9416 1.26433 1.08346 0.0184495
12495 1 -13.0396 -10.505 -9.12591 -39.6407 -10.505 -35.7271 0.0707911 -0.785428 0.284695
7216 1 -8.31525 -9.91148 -7.0329 -8.31525 16.6897 -33.634 0.446765 -0.018388 0.0773806
14375 1 -7.02436 -9.78686 -13.1867 -7.02436 43.4154 -13.1867 1.30175 -0.235195 -2.52765
9659 1 -7.31424 -12.8016 -8.50928 19.2869 40.4007 18.0919 0.0834926 0.537901 -0.191926
1969 1 -12.7619 -12.208 -8.25693 13.8392 14.3932 -88.0604 0.913665 0.724385 0.465702
4408 1 -10.2221 -10.9707 -10.2595 42.9802 -10.9707 16.3416 -1.6508 1.58836 2.19743
8222 1 -12.7983 -9.25505 -10.3491 -12.7983 -9.25505 -10.3491 -1.6779 1.23924 -0.83041
4407 1 -10.9116 -10.3753 -9.89643 42.2907 -10.3753 16.7047 0.692846 0.630603 0.0985793
14681 1 -10.9146 -11.098 -11.7446 42.2877 -11.098 -11.7446 -0.586972 -0.268999 1.32057
5974 1 -10.2405 -12.127 -12.01 -10.2405 -38.7282 14.5911 0.975686 0.00853344 -0.109222
5129 1 -7.05752 -11.7897 -8.66132 -7.05752 -11.7897 17.9398 -1.1293 0.19277 0.0893348
4609 1 -8.87945 -10.8361 -11.0171 17.7217 15.7651 -11.0171 -1.4265 -0.434408 0.706172
10116 1 -9.75699 -10.0785 -12.2845 16.8442 16.5226 67.5189 -0.866081 -0.388216 0.988353
3078 1 -8.28711 -11.6203 -10.1789 18.314 14.9809 -10.1789 0.368214 0.830975 1.01274
5014 1 -10.842 -12.1465 -7.41881 42.3603 41.0558 45.7835 0.895523 0.92224 -1.21549
12394 1 -11.7888 -10.163 -12.302 -38.39 -10.163 40.9003 -0.15645 0.3467 -1.61543
2108 1 -10.7859 -10.1875 -10.955 15.8152 -36.7886 -37.5562 -0.405988 -0.790838 -0.36836
6673 1 -10.7156 -9.41221 -10.2236 42.4867 17.1889 42.9787 -1.99222 0.289663 -0.445167
10115 1 -10.6724 -9.84926 -12.116 15.9287 16.7519 67.6874 2.16016 -0.69225 0.654764
241 1 -9.74146 -9.36159 -10.7575 16.8597 17.2396 15.8437 -1.62048 -0.12472 0.572057
242 1 -9.40379 -8.5729 -11.1621 17.1974 18.0282 15.4391 -1.03694 1.54062 -0.655877
15447 1 -9.96951 -9.02626 -12.0755 16.6316 -9.02626 14.5257 -0.629586 0.199323 -1.22664
15448 1 -9.11189 -9.29368 -11.7948 17.4893 -9.29368 14.8064 0.221327 -0.637885 0.191062
13106 1 -8.52574 -9.51159 -10.9838 18.0754 -36.1127 15.6173 1.25318 0.899079 0.168381
13470 1 -7.89414 -12.3407 -9.5481 -7.89414 -12.3407 -36.1493 -0.398741 0.846636 1.17782
13305 1 -9.50623 -10.2151 -7.01906 -9.50623 16.3861 -7.01906 0.863384 1.9125 0.614689
6818 1 -10.5984 -12.5207 -9.11575 -10.5984 40.6816 17.4854 1.75322 -0.221128 0.244152
12393 1 -11.6155 -9.19539 -12.1798 -38.2167 -9.19539 41.0225 0.0169925 1.15446 -0.566022
8457 1 -12.111 -8.56917 -10.0964 41.0913 -8.56917 16.5047 -1.05745 0.357513 -0.314772
8333 1 -11.3403 -8.09104 -11.8885 -11.3403 -8.09104 -65.0908 0.119795 -0.71993 -0.672902
8334 1 -12.1434 -8.27681 -12.3329 -12.1434 -8.27681 -65.5352 -0.0198454 0.03314 -0.282982
12883 1 -8.87278 -8.27856 -12.7242 17.7284 44.9237 -12.7242 1.07259 -0.417838 0.442631
13105 1 -7.50576 -9.40537 -11.2338 19.0954 -36.0065 15.3674 -0.14858 0.275008 -1.06071
14911 1 -7.11497 -12.2778 -11.032 99.2896 14.3233 15.5691 -1.15328 0.883588 0.145323
4306 1 -7.6944 -7.61166 -11.2764 -7.6944 18.9895 -11.2764 -2.1265 -0.0706559 0.406887
9765 1 -11.5143 -6.86954 -11.1672 -38.1154 -33.4707 -37.7684 0.656168 -1.0662 0.776466
12418 1 -12.7131 -9.48308 -9.26075 -12.7131 -9.48308 17.3404 0.10457 -1.54822 -0.211067
12635 1 -8.82127 -12.2435 -8.17612 17.7799 14.3577 18.425 0.716454 -0.720287 -0.354087
12884 1 -8.97446 -7.35147 -12.8742 17.6267 45.8508 -12.8742 -1.16709 -0.567073 0.268386
2286 1 -8.03824 -8.49431 -10.746 18.5629 -8.49431 69.0574 -1.9191 0.54089 0.756925
91 1 -9.79245 -9.20303 -6.79623 16.8087 -9.20303 19.8049 -0.0899505 0.0325108 0.428021
8362 1 -9.88251 -7.25267 -10.4583 16.7186 45.9496 69.3451 0.165122 -0.990387 -1.04468
15196 1 -7.52142 -8.13494 -12.1398 -34.1226 -8.13494 -12.1398 -1.83078 -1.30663 -0.528089
8347 1 -10.187 -10.0916 -13.2125 43.0153 16.5095 -13.2125 -1.43726 -0.180079 1.38995
3878 1 -9.39955 -9.34998 -13.0703 17.2016 17.2512 -39.6715 -0.0952794 2.48149 -0.130407
10981 1 -11.4486 -11.8053 -9.48104 15.1526 14.7958 17.1201 1.39888 2.00955 -0.0416429
10982 1 -12.0816 -11.5914 -8.84447 14.5195 15.0098 17.7567 1.21735 -1.10664 -1.22541
13457 1 -12.1418 -7.8199 -7.71829 -12.1418 -7.8199 45.484 0.642621 -1.60699 0.415141
4269 1 -10.3968 -12.2654 -10.3253 69.4067 -12.2654 16.2759 0.350991 -2.58546 -1.08376
7830 1 -8.51588 -7.27468 -11.9818 44.6864 -7.27468 -11.9818 -1.42442 0.984364 1.23355
2556 1 -8.29608 -12.3252 -11.9443 -8.29608 -12.3252 67.8591 -1.06175 -1.44194 -0.189704
1400 1 -12.728 -7.7618 -9.71572 13.8731 -34.3629 16.8854 -0.0395268 -0.369338 -0.647959
13185 1 -10.3093 -12.8671 -11.2761 16.2919 -12.8671 15.325 2.79399 -0.523602 -0.593274
1472 1 -8.73281 -8.11935 -7.8462 44.4695 -8.11935 -7.8462 0.944265 0.351897 -2.95336
2555 1 -8.01831 -11.6535 -11.3425 -8.01831 -11.6535 68.461 -0.0818284 -0.674866 -0.138334
13603 1 -7.94384 -12.8893 -12.8209 45.2584 40.313 13.7802 0.109171 0.0347986 -0.752445
278 1 -12.2981 -12.7546 -11.9574 14.3031 -12.7546 -11.9574 0.0993884 -0.266142 -0.734455
8473 1 -9.78006 -8.04687 -7.0487 16.8211 -8.04687 -7.0487 1.75268 -0.413138 -1.14361
5820 1 -12.2033 -9.54259 -11.1824 -12.2033 -9.54259 42.0199 1.26591 -0.401613 -0.540079
5973 1 -11.0288 -12.6366 -11.9845 -11.0288 -39.2377 14.6166 1.2588 0.710753 0.508334
3866 1 -12.0175 -12.0412 -10.3207 14.5836 14.56 16.2804 1.75356 0.0929527 0.99051
8422 1 -10.5794 -10.7562 -8.98035 -10.5794 42.4461 -35.5815 -0.294408 1.36526 0.644018
4610 1 -9.4288 -11.3348 -11.6867 17.1723 15.2663 -11.6867 -0.476217 -0.891498 -1.46691
13186 1 -9.46328 -12.3575 -11.2426 17.1379 -12.3575 15.3585 -0.958081 -0.647209 -2.06598
3077 1 -8.31377 -12.3824 -10.7715 18.2874 14.2187 -10.7715 -0.878048 0.225649 -0.648084
5954 1 -7.58689 -8.33435 -7.11215 -7.58689 44.8679 -33.7133 -0.75546 0.386302 -1.46198
1970 1 -13.1405 -13.0275 -8.52231 13.4606 13.5737 -88.3258 -1.31046 -0.216688 -0.225556
7913 1 -6.95062 -6.91728 -8.31646 -6.95062 -60.1196 18.2847 0.397498 0.761888 0.675515
6065 1 -12.9396 -9.88371 -11.7732 13.6615 16.7174 14.828 -0.476902 -1.32287 -0.0967223
2107 1 -10.0322 -10.4769 -11.378 16.5689 -37.078 -37.9791 -0.413336 0.439567 -0.991028
6674 1 -10.8179 -8.39088 -9.94394 42.3844 18.2103 43.2584 0.966517 -0.619279 0.33983
3865 1 -11.4852 -11.2446 -10.3922 15.116 15.3566 16.209 -0.731548 0.585265 -1.92404
13519 1 -9.77784 -10.0774 -9.9278 -62.9801 -10.0774 -36.5289 -1.59815 -0.0980206 0.903424
15296 1 -6.70145 -10.7388 -9.37018 -59.9037 42.4635 17.231 0.628114 -0.0699537 1.54527
5431 1 -8.93322 -10.7355 -9.95634 -8.93322 -10.7355 43.2459 -0.33539 -0.26242 -0.0687775
4113 1 -8.61268 -8.86187 -8.51238 44.5896 -35.463 44.6899 0.650014 0.597894 0.90911
13458 1 -11.7904 -7.8209 -6.79469 -11.7904 -7.8209 46.4076 -1.76287 -0.257546 0.0650659
12457 1 -10.1035 -9.59246 -7.73624 -10.1035 17.0087 -34.3374 -1.39017 -1.27315 -1.48793
5500 1 -11.9065 -8.43936 -11.207 67.8969 -8.43936 -11.207 -0.243529 0.163269 -0.357691
6655 1 -10.0418 -7.61866 -8.96829 16.5593 18.9825 70.8351 0.734511 0.0791344 -1.40389
6656 1 -10.7334 -8.07506 -8.5136 15.8678 18.5261 71.2898 -0.168483 -0.838525 -0.135923
8458 1 -11.8739 -8.16313 -9.25404 41.3284 -8.16313 17.3471 -0.0218882 0.284801 -0.932699
12517 1 -9.11371 -7.5575 -9.89722 17.4874 -7.5575 -9.89722 -0.584239 0.699953 0.653178
12518 1 -9.68698 -8.30258 -10.2143 16.9142 -8.30258 -10.2143 2.39514 0.248252 -0.0551071
4114 1 -8.95403 -8.52928 -9.33374 44.2483 -35.1304 43.8686 -0.616049 -0.291418 -0.0336643
1443 1 -11.2377 -9.17261 -11.0692 15.3634 -35.7738 -11.0692 0.575578 -1.27041 0.962387
2285 1 -8.50565 -8.31022 -11.6085 18.0955 -8.31022 68.195 -0.071517 -0.720668 1.62371
7914 1 -7.31116 -7.37413 -7.55204 -7.31116 -60.5764 19.0491 0.542863 -1.10507 1.66939
2763 1 -6.9095 -9.94758 -10.3862 72.8939 -36.5487 -10.3862 1.4581 1.29253 0.139851
4305 1 -6.92513 -8.13087 -10.8057 -6.92513 18.4703 -10.8057 -0.180909 0.438869 0.349051
1863 1 -6.83029 -11.2965 -12.2967 -33.4314 15.3046 -65.499 0.905032 -0.236237 -2.18753
13302 1 -12.9034 -11.0173 -8.24716 -39.5045 15.5839 -34.8483 1.32272 0.713187 -1.08828
5499 1 -11.2767 -7.79075 -10.7499 68.5268 -7.79075 -10.7499 -2.05935 1.03033 -0.458539
1444 1 -10.5489 -8.49086 -11.1286 16.0522 -35.092 -11.1286 -0.0738538 0.905952 0.451476
8095 1 -9.65377 -12.0183 -13.2154 70.1497 -12.0183 -66.4177 1.51708 0.869869 0.00620042
15366 1 -10.9722 -7.39438 -9.73827 -37.5734 19.2068 -9.73827 -0.0101507 0.783438 1.57878
7540 1 -11.6214 -11.6743 -6.88216 -11.6214 14.9269 19.719 0.425754 0.838556 0.0903955
6817 1 -9.82509 -12.2734 -8.63953 -9.82509 40.9289 17.9616 -0.515184 0.691523 -1.39057
3793 1 -9.67136 -12.8551 -9.38653 -62.8737 66.9484 17.2146 -2.14141 -0.687759 2.16318
14912 1 -7.15258 -12.0843 -11.9763 99.252 14.5168 14.6248 -2.92217 1.92309 -1.56102
5013 1 -11.6224 -12.1935 -7.88976 41.5799 41.0088 45.3125 -0.379296 0.463068 0.112899
5251 1 -7.54223 -10.1493 -7.99305 -7.54223 43.053 18.6081 -1.26397 -0.892875 -0.785639
11906 1 -9.53325 -13.031 -12.0386 -36.1344 13.5702 -12.0386 1.96134 0.302096 2.02749
8421 1 -10.6968 -11.548 -8.42192 -10.6968 41.6543 -35.0231 2.82381 -0.190985 1.05802
15195 1 -6.85698 -7.50253 -12.0496 -33.4581 -7.50253 -12.0496 1.15221 -1.16058 -0.968783
10432 1 -7.41618 -12.785 -6.72922 -34.0173 -12.785 19.8719 -0.895779 -0.0839536 -1.69743
2009 1 -8.82067 -10.6403 -8.88512 -8.82067 15.9608 44.3172 1.27291 0.830489 0.188049
10415 1 -12.7683 -13.2317 -10.8232 -39.3694 -13.2317 -37.4243 -1.09248 0.53676 -1.90379
4270 1 -11.0867 -12.8682 -9.96229 68.7167 -12.8682 16.6389 -0.403186 -0.438076 -0.315624
10491 1 -11.5063 -9.3986 -9.56674 -64.7086 43.8037 17.0344 -0.231813 0.731301 0.928342
5250 1 -10.6495 -9.58875 -8.65651 42.5528 -9.58875 -8.65651 0.592833 0.157118 0.666611
7609 1 -9.53367 -11.6943 -10.4069 -36.1348 -11.6943 -10.4069 0.0777459 0.705921 0.47622
5432 1 -8.07532 -10.3453 -10.1851 -8.07532 -10.3453 43.0172 -1.09491 0.510917 0.481633
13469 1 -8.13848 -11.8554 -8.76361 -8.13848 -11.8554 -35.3648 0.579738 -0.60754 -1.56289
15683 1 -9.07975 -9.27822 -7.68069 -35.6809 43.9241 -7.68069 -0.152546 -0.679788 -0.0107392
9448 1 -12.9786 -11.3608 -9.7759 -12.9786 -11.3608 16.8252 -0.200886 -0.116715 -1.24793
5451 1 -8.37059 -13.0387 -8.76173 44.8317 -13.0387 -8.76173 -1.15792 0.898185 -0.223293
1886 1 -6.89298 -12.9731 -10.05 -33.4941 -12.9731 -10.05 -0.0660656 -2.03607 1.5596
8221 1 -12.3615 -10.0898 -10.349 -12.3615 -10.0898 -10.349 -0.0539798 -1.62569 -3.84917
10492 1 -11.6088 -9.10099 -8.65466 -64.8111 44.1013 17.9465 1.19822 0.581882 1.02501
6543 1 -11.8801 -8.96547 -7.51445 14.7211 17.6357 -7.51445 -1.21315 0.297855 0.191523
13520 1 -9.79661 -9.14939 -9.57767 -62.9989 -9.14939 -36.1788 -1.02737 -0.214294 -0.584108
11449 1 -8.48244 -9.67382 -9.10929 -8.48244 16.9273 -35.7104 -0.00952859 -1.33428 -1.51385
15295 1 -7.42491 -10.1714 -9.0781 -60.6272 43.0309 17.5231 -1.02429 -1.38644 -0.54212
12606 1 -11.0125 -7.59086 -12.8123 -37.6137 -7.59086 13.7888 -2.13403 -0.710081 -0.94593
14324 1 -12.6248 -7.95566 -13.2852 13.9764 45.2466 13.316 -0.274491 -0.184246 -0.538898
7853 1 -8.28278 -7.57729 -7.1802 18.3184 19.0239 46.0221 -1.32926 0.524297 1.24404
7361 1 -11.4071 -7.21814 -8.05667 -11.4071 -33.8193 -34.6578 0.359552 -0.561128 -1.30571
7606 1 -7.98934 -7.88646 -8.45947 18.6118 18.7147 18.1417 1.54197 0.00121897 -2.2865
6544 1 -11.8351 -9.89495 -7.63824 14.766 16.7062 -7.63824 1.89307 -1.17938 -2.5332
7605 1 -7.74863 -8.06674 -9.4005 18.8525 18.5344 17.2007 0.441754 1.11015 0.444145
12458 1 -10.9035 -9.06187 -7.81554 -10.9035 17.5393 -34.4167 -1.40945 -0.735546 0.377258
2764 1 -7.69113 -9.36387 -10.2637 72.1123 -35.965 -10.2637 -1.44954 -0.2083 1.29397
8683 1 -7.70761 -9.02245 -7.79927 -34.3088 -35.6236 18.8019 -0.287816 0.537231 0.127718
8684 1 -7.18323 -8.32058 -8.15764 -33.7844 -34.9217 18.4435 0.454356 -0.191812 0.777386
9826 1 -7.25777 -7.38017 -10.1126 -7.25777 -7.38017 16.4886 1.55585 2.01807 -1.12059
10100 1 -7.50213 -9.12071 -8.89811 -7.50213 17.4804 44.3042 0.777266 0.536867 0.0830159
5501 1 -12.2593 -7.11386 -12.646 14.3419 19.4873 13.9551 1.08693 -0.213171 -0.461181
4686 1 -10.7942 -13.2669 -7.09657 15.8069 -39.868 19.5046 0.672067 -0.130833 -2.31623
10099 1 -6.89021 -9.36934 -8.24174 -6.89021 17.2318 44.9606 0.769806 0.505711 -2.23166
14578 1 -9.4058 -11.1813 -12.7256 17.1953 15.4199 -39.3267 0.645346 -0.401786 1.58951
12636 1 -9.10737 -12.3722 -7.2754 17.4938 14.229 19.3258 0.897212 -1.58368 0.0211238
15684 1 -8.51505 -9.97811 -8.02537 -35.1162 43.2242 -8.02537 -0.355651 -1.29176 0.0863286
7215 1 -7.98303 -10.8001 -7.10502 -7.98303 15.8011 -33.7062 0.170256 -0.764818 2.45068
9825 1 -6.7735 -6.66117 -9.58975 -6.7735 -6.66117 17.0114 -0.531478 -0.819433 0.0228318
9344 1 -8.90114 -7.67911 -8.85009 97.5034 45.5232 -35.4512 -0.425851 -2.94147 0.716309
3471 1 -10.4675 -7.37939 -11.8906 -10.4675 45.8229 14.7106 -1.07651 -2.2705 0.460423
5886 1 -11.9208 -11.1689 -7.89204 14.6804 15.4323 18.7091 1.57229 -0.439653 -0.288474
11581 1 -9.69605 -11.4986 -7.81271 -36.2972 41.7037 71.9907 -0.0263439 -0.314508 1.37889
7610 1 -9.86305 -11.5525 -9.56171 -36.4642 -11.5525 -9.56171 -0.524584 -0.513328 -1.6297
11582 1 -10.366 -11.1948 -7.24408 -36.9671 42.0075 72.5594 -1.58334 0.739877 1.23484
2010 1 -8.07488 -10.9733 -9.39732 -8.07488 15.6278 43.805 0.566856 -0.721506 1.38794
10015 1 -11.8054 -10.5217 -9.24633 -11.8054 16.0794 -9.24633 -0.884976 0.14067 -1.28675
6204 1 -9.79923 -7.15168 -7.99885 16.8019 46.0506 71.8046 -0.0491271 0.730463 -0.761512
2410 1 -8.92292 -13.1691 -11.2195 44.2794 -39.7703 -37.8207 -0.0578448 0.471847 0.413615
7362 1 -11.9533 -7.24582 -8.78554 -11.9533 -33.847 -35.3867 0.184156 2.51341 -0.630392
8076 1 -10.721 -10.0038 -7.01243 15.8802 43.1985 19.5887 -0.0917346 -1.24678 1.39965
1091 1 -12.0735 -7.27203 -10.3653 41.1288 19.3291 69.4381 -1.02405 -0.676405 -0.520357
4753 1 -9.69491 -9.93407 -8.90163 -9.69491 43.2682 17.6995 -0.382119 1.27449 0.986183
6109 1 -7.91371 -11.2335 -8.00091 18.6874 -11.2335 -34.6021 0.886529 -0.617495 -0.867782
8598 1 -6.91036 -11.0887 -7.77812 19.6908 15.5124 -34.3793 -0.696674 1.86749 1.11817
70 1 -10.0453 -7.82615 -12.7839 -10.0453 18.775 13.8172 1.43093 -0.715676 0.980488
8474 1 -10.5988 -7.63937 -7.48109 16.0023 -7.63937 -7.48109 1.26509 -0.733422 -0.654194
14451 1 -11.1944 -8.88627 -6.67972 15.4068 17.7149 -6.67972 -1.02613 -0.463313 -0.172188
7539 1 -11.4645 -10.7734 -6.91028 -11.4645 15.8277 19.6909 -0.0334523 -0.287538 -3.03643
3472 1 -9.5773 -7.79451 -11.8205 -9.5773 45.4078 14.7806 -0.733552 1.25046 0.558838
5249 1 -10.0772 -8.85668 -8.64626 43.1251 -8.85668 -8.64626 1.10115 2.15467 0.75277
5130 1 -7.10997 -11.6026 -9.61222 -7.10997 -11.6026 16.9889 0.310282 -0.274664 -0.468915
4754 1 -9.71094 -10.4874 -8.16443 -9.71094 42.7148 18.4367 -0.593219 0.746601 0.575145
11450 1 -8.65449 -9.29219 -9.97988 -8.65449 17.309 -36.581 -0.447587 1.4734 -0.628986
9447 1 -12.7396 -11.3256 -10.7084 -12.7396 -11.3256 15.8928 0.456618 -0.185605 1.05972
14112 1 -8.90347 -7.54427 -10.9066 44.2988 19.0569 15.6945 1.04343 0.19805 -0.482362
1471 1 -9.57138 -8.1131 -8.18267 43.6309 -8.1131 -8.18267 0.223643 0.01714 0.619856
12893 1 -7.69856 -6.73593 -9.15688 -34.2997 -33.3371 -9.15688 0.928639 0.178139 1.78206
14111 1 -8.4025 -6.9738 -10.3697 44.7998 19.6274 16.2315 -0.505809 0.529124 -0.268696
5252 1 -7.09764 -9.88799 -7.19187 -7.09764 43.3143 19.4093 -0.284446 -0.467946 0.0831036
13306 1 -8.89353 -10.7916 -7.47882 -8.89353 15.8095 -7.47882 0.732265 1.95823 0.287776
5622 1 -6.96033 -8.61081 -9.70599 -33.5615 -35.212 16.8952 0.403471 1.17165 -1.0891
14808 1 -7.02978 -9.20068 -12.2609 19.5714 17.4005 14.3403 0.277614 0.484413 2.76544
585 1 -11.1519 -6.87138 -6.87349 -11.1519 19.7298 -33.4746 -0.879403 1.00862 -0.624073
12216 1 -12.4644 -8.50888 -6.84996 -12.4644 -8.50888 -33.4511 1.33851 0.0479258 -0.0473086
1326 1 -10.048 -6.9448 -6.98121 -10.048 -6.9448 19.6199 1.04836 0.0186638 -1.42836
7716 1 -9.59736 -6.73261 -11.223 -9.59736 19.8685 41.9792 1.25111 -0.241501 0.937182
4510 1 -11.4096 -13.2017 -12.8043 41.7926 -39.8028 -39.4054 -1.2699 2.0022 -0.414196
6043 1 -12.3104 -9.87938 -6.76104 -38.9116 16.7218 -59.9633 -0.230955 0.525276 1.96868
7854 1 -9.04471 -7.10621 -6.81755 17.5564 19.4949 46.3847 -0.897324 -1.10466 -0.542401
14779 1 -10.0211 -12.02 -6.87068 -10.0211 -12.02 46.3316 -0.0325857 -0.0505964 -0.138301
6281 1 -8.51352 -11.769 -6.69591 -35.1147 -38.3702 -6.69591 0.438447 1.44574 -0.941936
5421 1 -9.02087 -12.742 -13.1475 -9.02087 13.8591 -39.7487 0.419906 0.853669 0.502756
14323 1 -12.6765 -8.90038 -13.2563 13.9246 44.3019 13.3448 -0.4301 1.34651 0.97976
8075 1 -11.2742 -9.93363 -6.24967 15.3269 43.2687 20.3515 -0.0343227 -0.978719 1.73193
1115 1 -12.2886 -12.8589 -4.19812 -65.4909 13.7422 49.0042 -0.19467 0.0479437 0.152465
13930 1 -11.5925 -11.8599 -5.78049 -11.5925 14.7412 47.4218 3.09497 -0.166732 -0.324263
13929 1 -10.9417 -11.1555 -6.03326 -10.9417 15.4456 47.169 0.718893 0.542226 -1.70866
902 1 -12.1807 -9.06718 -0.500764 -12.1807 -62.2695 -0.500764 -0.275266 1.29848 0.236332
1774 1 -13.0327 -11.9685 -0.905785 -13.0327 -11.9685 -0.905785 1.72435 0.189599 0.133523
11701 1 -9.41439 -12.6885 -6.34111 17.1868 13.9126 20.26 0.639535 0.565108 0.0390526
14780 1 -10.6176 -12.4647 -6.31012 -10.6176 -12.4647 46.8922 1.04743 -0.80392 0.777511
170 1 -12.9911 -10.0909 -5.13738 40.2112 43.1114 -31.7385 0.874107 -0.235135 1.21247
3757 1 -10.627 -13.0522 -1.9545 -37.2281 -39.6534 24.6466 -0.422581 0.30472 -0.105944
326 1 -7.64685 -12.5851 -5.31977 -7.64685 -12.5851 -5.31977 -0.783859 0.820776 1.20543
12043 1 -7.37574 -9.67893 -4.77528 -7.37574 16.9222 21.8259 -0.39183 -0.597939 1.03936
7299 1 -12.7032 -10.3189 -3.09879 -39.3043 -36.92 -29.6999 -0.0257267 -0.938813 -0.628565
14488 1 -11.6135 -12.695 -3.15569 14.9877 -12.695 -29.7568 -0.272894 0.243058 1.0998
325 1 -6.82744 -12.2552 -5.70742 -6.82744 -12.2552 -5.70742 0.846072 0.656998 0.858725
3491 1 -9.99611 -7.92441 -0.969677 16.605 -7.92441 25.6315 -1.92876 0.741616 -0.0864149
15463 1 -13.1822 -11.4137 -0.0718542 13.4189 15.1875 26.5293 -0.401373 0.74927 -1.83804
7918 1 -13.1152 -7.92777 -1.80832 13.4859 18.6734 -1.80832 1.58019 1.31724 1.2514
5393 1 -11.6392 -10.8499 -4.30601 14.9619 -10.8499 -4.30601 -2.59968 -0.287342 1.15621
8455 1 -10.6156 -10.4309 -3.96832 -90.4191 -10.4309 -3.96832 0.460811 -0.466352 -1.2406
4937 1 -9.23569 -11.6944 -5.78394 17.3655 -11.6944 -32.3851 1.5572 0.683486 -0.148739
11935 1 -11.4722 -10.2025 -0.93853 -11.4722 16.3986 25.6626 -1.30189 -0.556706 1.13636
7184 1 -9.63513 -11.0466 -6.48574 -9.63513 15.5546 20.1154 -0.362049 0.12712 -1.09722
7490 1 -11.5729 -12.7687 -1.38407 15.0282 40.4336 -1.38407 -0.538404 -0.234689 0.271583
6282 1 -7.74796 -11.8148 -6.10619 -34.3491 -38.416 -6.10619 0.303027 1.35082 -0.730621
1473 1 -12.8863 -9.23015 -3.40691 13.7148 17.371 -3.40691 -0.53288 0.197759 0.460723
8291 1 -13.038 -11.7102 -5.65863 -13.038 -11.7102 -32.2598 0.493535 1.07255 0.221874
6044 1 -12.2795 -9.85454 -5.79645 -38.8807 16.7466 -58.9987 -2.45395 -0.498766 -0.419011
8523 1 -8.97947 -13.274 -0.403939 -8.97947 -13.274 26.1972 -0.42203 -1.10316 -0.934063
7183 1 -10.1748 -10.3624 -6.09709 -10.1748 16.2387 20.5041 0.0344494 -1.88074 -1.61923
6335 1 -7.91208 -7.42359 -5.95664 -61.1144 -7.42359 20.6445 -0.324883 1.30357 0.741704
9423 1 -10.5492 -13.2972 -3.10047 -10.5492 13.3039 23.5007 -0.0669949 -0.0094097 0.310805
1325 1 -9.85482 -7.45154 -6.15576 -9.85482 -7.45154 20.4454 1.52931 0.89394 0.721901
233 1 -12.6114 -10.8184 -6.55295 40.5909 42.3839 -6.55295 0.0235586 0.13858 -0.0727864
3758 1 -10.7023 -12.3862 -2.64824 -37.3034 -38.9874 23.9529 -0.907113 -1.18886 -2.02098
14647 1 -12.6103 -9.07491 -5.18848 -12.6103 17.5262 21.4127 -1.25932 0.481676 -0.610263
12215 1 -12.3569 -8.30838 -5.88181 -12.3569 -8.30838 -32.483 -1.09501 0.367948 -1.22431
669 1 -11.0354 -7.80422 -5.38518 -11.0354 -34.4054 -5.38518 -0.685494 0.785313 0.204193
15266 1 -10.2089 -8.77251 -5.21226 16.3922 17.8286 21.3889 0.500653 0.722393 -0.769308
15265 1 -9.57774 -8.73247 -5.90873 17.0234 17.8687 20.6924 1.72612 -0.86157 -0.468151
15225 1 -8.94788 -7.89434 -6.13091 -8.94788 18.7068 -6.13091 -1.2401 -0.218232 -2.29457
8524 1 -8.06562 -13.0568 -0.468047 -8.06562 -13.0568 26.1331 -0.622994 1.32392 0.0225602
12149 1 -7.69214 -12.5394 -2.46004 -7.69214 40.6629 -2.46004 1.27594 -0.0251598 -0.236411
10985 1 -10.7264 -12.8035 -0.442966 -10.7264 13.7976 -0.442966 0.678807 1.7698 0.945293
1474 1 -13.0676 -8.33019 -3.61226 13.5335 18.271 -3.61226 -0.325586 1.02868 0.911483
3607 1 -7.4645 -8.30637 -5.36664 -34.0656 -8.30637 21.2345 -1.76447 -0.384144 -0.36297
7489 1 -12.4667 -12.8416 -0.968743 14.1345 40.3607 -0.968743 -1.33628 -1.70067 0.933142
670 1 -10.7371 -7.95616 -6.24712 -10.7371 -34.5573 -6.24712 0.381198 -0.722169 -0.614437
7920 1 -9.60803 -13.2527 -1.61751 43.5943 -13.2527 -1.61751 -0.0275531 0.384788 0.627564
1713 1 -6.99675 -7.95085 -1.92512 19.6044 45.2514 24.676 -0.0560764 -0.733532 1.40381
15842 1 -11.9514 -6.76586 -0.864391 -11.9514 -6.76586 -0.864391 -0.778507 1.22403 0.619501
25 1 -11.7626 -12.9626 -6.38888 41.4397 13.6386 20.2123 0.909155 0.877249 1.11808
11702 1 -8.64148 -12.6359 -5.81506 17.9597 13.9652 20.7861 -1.03568 1.58578 -0.441786
2226 1 -8.76603 -7.75274 -5.13077 -35.3672 18.8484 -31.7319 0.226708 -0.995826 -1.07345
4928 1 -6.95721 -12.53 -1.04305 -60.1595 -39.1312 -27.6442 1.41893 0.760609 0.265981
9105 1 -7.06233 -7.73545 -6.36769 19.5388 -34.3366 -6.36769 -1.67057 0.655335 1.23052
13758 1 -11.9546 -13.2823 -2.2559 14.6465 39.92 24.3452 0.045505 0.172162 0.390627
8464 1 -7.06028 -6.80092 -5.42351 19.5409 -33.4021 -5.42351 -1.19118 -0.744344 0.361741
1116 1 -12.876 -12.4474 -4.84818 -66.0783 14.1538 48.3541 -0.850038 1.21099 0.966641
10641 1 -11.2221 -8.45495 -0.261796 -11.2221 -8.45495 -0.261796 0.378027 1.93631 -0.489767
9451 1 -9.62192 -12.3415 -4.57629 -9.62192 -12.3415 -4.57629 0.557219 1.41977 -0.77069
10764 1 -11.4355 -6.71051 -2.70376 15.1656 -59.9128 -2.70376 -1.07845 0.803749 1.53982
4938 1 -8.40587 -11.8088 -5.29756 18.1953 -11.8088 -31.8987 -0.410356 1.5023 0.127534
14239 1 -8.54232 -13.1262 -4.44573 -8.54232 13.475 22.1554 2.29573 -0.991357 -0.548755
2396 1 -7.02638 -12.896 -4.52048 -60.2287 -12.896 -31.1216 -0.388634 -0.958675 0.625398
15464 1 -12.2516 -11.2564 -0.243679 14.3495 15.3448 26.3575 -0.542084 -1.01052 -1.65314
5394 1 -11.8577 -9.97935 -4.69171 14.7434 -9.97935 -4.69171 0.643414 1.04566 -0.686994
7806 1 -12.1295 -11.863 -4.31578 -12.1295 -11.863 48.8865 -0.445514 -0.45541 0.639477
15815 1 -11.5995 -11.5682 -3.41224 15.0016 41.6341 23.1889 0.215462 -0.317866 -0.699008
8456 1 -10.1247 -10.4173 -4.79663 -89.9281 -10.4173 -4.79663 -0.472717 0.513586 -1.01086
5856 1 -8.93729 -11.363 -3.90761 -35.5384 15.2382 -3.90761 1.61563 0.0186945 1.54833
1122 1 -10.3322 -11.926 -3.57126 -36.9333 -11.926 23.0299 1.41369 -1.23668 -0.614642
1121 1 -9.40039 -12.0031 -3.32118 -36.0015 -12.0031 23.28 -0.573314 -0.228914 0.414231
5855 1 -9.77059 -11.3661 -4.39253 -36.3717 15.2351 -4.39253 3.17998 -0.173132 -1.19787
15841 1 -12.3883 -7.0413 -1.65581 -12.3883 -7.0413 -1.65581 -0.0220286 -0.0999811 -0.284488
8639 1 -7.07606 -10.571 -6.56531 -86.8795 69.2324 20.0358 -1.12376 1.20351 -0.196471
14487 1 -11.0845 -12.9197 -3.89699 15.5166 -12.9197 -30.4981 1.03398 0.997793 -0.813411
11741 1 -12.6188 -12.6303 -2.88242 -39.2199 13.9709 -2.88242 1.12947 -1.36243 -0.351287
14648 1 -12.7027 -8.20765 -4.86422 -12.7027 18.3935 21.7369 -1.1136 -0.961587 -0.0286119
13858 1 -11.1327 -10.4506 -5.23576 15.4685 42.7517 47.9665 0.709308 0.466461 -0.257076
13857 1 -10.8539 -9.55296 -5.24235 15.7473 43.6493 47.9599 -0.746471 1.04019 0.191296
5929 1 -12.2034 -8.91284 -4.3219 -12.2034 -8.91284 22.2793 0.017864 -1.28808 0.219806
8074 1 -10.8389 -9.76371 -2.77493 -10.8389 70.0397 -2.77493 -1.03527 -1.38402 0.45196
4824 1 -8.92516 -10.4784 -5.94374 -35.5263 -37.0795 47.2586 1.04743 -1.43002 1.96776
4823 1 -8.90684 -10.8379 -5.03066 -35.508 -37.439 48.1716 -0.682541 -0.0826943 0.500782
3677 1 -8.03708 -8.9446 -4.5818 18.5641 -35.5458 -31.1829 -0.696427 -1.48088 0.632361
12044 1 -7.97141 -10.4395 -4.83959 -7.97141 16.1617 21.7616 -1.07988 -1.44882 -0.471872
5609 1 -8.00991 -10.938 -3.19087 -34.6111 -10.938 23.4103 0.329121 1.00932 -0.214001
5930 1 -11.4643 -8.56722 -4.7525 -11.4643 -8.56722 21.8486 -0.191083 -0.949908 1.60667
5921 1 -7.81782 -7.57671 -2.63481 45.3845 19.0244 23.9663 0.941843 -0.376197 -1.90766
212 1 -11.9392 -7.22084 -5.62357 41.2631 -33.822 47.5787 1.0234 -0.883426 -0.113969
211 1 -11.829 -7.51838 -4.6554 41.3732 -34.1195 48.5469 -1.21968 0.417309 0.201915
9857 1 -9.07547 -10.7041 -3.11966 -9.07547 42.4982 -3.11966 0.432824 -1.13125 -0.817808
3678 1 -8.49055 -9.71709 -4.22424 18.1106 -36.3182 -30.8254 0.0111593 -1.65835 1.4046
5525 1 -12.6437 -7.21633 -6.50638 -12.6437 -33.8175 -6.50638 -0.612649 -0.510357 -1.21146