ITEM: TIMESTEP
20000
ITEM: NUMBER OF ATOMS
16000
ITEM: BOX BOUNDS pp pp pp
-1.3300573168565002e+01 1.3300573168565002e+01
-1.3300573168565002e+01 1.3300573168565002e+01
-1.3300573168565002e+01 1.3300573168565002e+01
ITEM: ATOMS id type x y z xu yu zu vx vy vz
5143 1 -12.0975 -7.91904 -12.7166 -12.0975 -34.5202 13.8845 1.2133 -1.37421 0.737658
337 1 -12.1343 -10.3704 -8.05073 41.068 -36.9715 -61.253 -0.59753 0.354733 -0.633069
6238 1 -7.06152 -12.7397 -9.26114 46.1408 13.8615 43.9411 0.858052 -0.972798 0.691747
9886 1 -8.80342 -11.8996 -12.3022 44.3989 67.9039 14.2989 -1.12849 0.410818 0.759326
9885 1 -9.66885 -12.0202 -12.7303 43.5334 67.7833 13.8708 0.218358 -0.665893 0.0425787
338 1 -12.469 -11.2055 -7.81139 40.7333 -37.8066 -61.0137 0.927018 -0.0924776 -1.37991
601 1 -13.1399 -9.2279 -10.4826 66.6635 -9.2279 16.1185 -1.19848 0.967437 0.691878
12793 1 -10.5421 -9.20211 -12.9375 69.2613 -35.8033 13.6637 -1.21426 -1.24097 1.07993
6612 1 -9.41966 -13.0432 -12.3852 43.7826 -13.0432 -65.5875 0.103132 -1.07672 0.861419
15225 1 -12.6949 -12.2611 -10.5141 -12.6949 14.3401 -10.5141 0.110869 0.239937 0.474125
11942 1 -13.0631 -7.2138 -11.8033 40.1391 -33.8149 -11.8033 0.855469 -1.04484 0.191847
9816 1 -7.06162 -6.7238 -11.5247 -7.06162 46.4785 15.0764 1.29066 -0.282618 -1.91437
4257 1 -10.9333 -10.7062 -12.0317 -10.9333 69.0972 -38.6328 0.657534 -0.585669 -0.931746
4258 1 -11.7373 -10.8029 -11.437 -11.7373 69.0006 -38.0381 -0.413687 -0.64027 -0.543199
10740 1 -9.42959 -10.9133 -12.5293 -36.0307 -64.1156 -12.5293 -0.0595592 0.610453 -1.09871
10029 1 -10.498 -12.5655 -10.727 -37.0992 14.0356 -10.727 -0.244678 -2.17913 0.309044
8482 1 -8.02864 -10.0847 -11.7736 18.5725 43.1176 41.4287 1.79215 -0.82062 0.986931
8481 1 -8.89592 -9.98881 -12.2039 17.7052 43.2135 40.9984 -1.31465 -0.427451 1.04676
4934 1 -7.18362 -10.0679 -12.6755 -7.18362 -10.0679 13.9256 0.824365 0.317985 -0.113799
16 1 -11.1958 -10.4478 -6.88371 -11.1958 16.1534 -6.88371 -0.893686 -0.366263 -0.319242
6804 1 -6.67936 -13.3836 -7.19074 -6.67936 13.2176 -7.19074 -0.330066 -0.0445525 -0.344558
5640 1 -9.65414 -12.9046 -8.8727 -36.2553 13.6966 -35.4738 0.766769 -0.653582 0.456177
4198 1 -7.95405 -7.76511 -13.1295 45.2482 -7.76511 -13.1295 0.388105 -0.103122 -2.05292
1192 1 -10.9387 -13.3394 -11.5157 42.2636 -13.3394 -11.5157 0.577807 -2.06493 1.09131
3068 1 -11.4715 -9.61465 -11.888 41.7308 16.9865 14.7132 -0.238783 -0.570091 0.0398848
6618 1 -9.55434 -9.61683 -12.829 70.2491 16.9843 40.3733 -0.517205 1.55573 -0.00276212
11289 1 -12.1768 -8.22962 -7.87421 41.0255 -61.4319 18.7269 -0.899677 0.631717 -0.750525
6617 1 -10.2394 -10.0992 -12.3726 69.564 16.5019 40.8297 -0.251588 -1.49048 -1.86007
7003 1 -10.6387 -11.8832 -9.88644 -63.8409 -11.8832 -9.88644 2.03247 0.111451 -0.475078
5898 1 -8.69144 -12.7234 -10.1776 44.5109 13.8778 16.4236 -1.24865 0.332266 1.23835
8609 1 -10.5047 -7.10456 -13.0982 16.0965 19.4966 -13.0982 0.898423 -0.627046 -1.31494
9579 1 -9.75506 -12.6592 -11.4516 -9.75506 40.5431 41.7507 0.0131392 -0.910217 1.02136
7733 1 -12.7012 -9.24788 -11.7026 13.8999 17.3533 14.8986 1.01964 -1.0279 1.01947
5773 1 -8.36328 -9.58994 -13.0512 -8.36328 43.6124 40.1511 -0.918293 -0.343719 1.08851
12794 1 -10.5095 -9.15829 -11.9859 69.2939 -35.7594 14.6153 1.25242 -2.67436 0.625076
10444 1 -8.9275 -7.69483 -12.7705 17.6736 -34.296 40.4317 0.800589 -0.308971 -0.633584
9271 1 -12.0277 -12.739 -12.9213 -65.23 -12.739 13.6798 0.0896463 -0.657593 -0.351891
8610 1 -10.2799 -7.35299 -12.2271 16.3213 19.2482 -12.2271 0.59338 1.16012 0.635755
7951 1 -11.3654 -12.8924 -8.65486 -11.3654 -12.8924 -61.8572 0.967688 0.036425 0.438344
8312 1 -8.81841 -7.75611 -10.8508 44.3839 -60.9584 -37.4519 0.592443 1.17082 -0.932969
14774 1 -10.2736 -8.3019 -7.8665 -10.2736 -8.3019 18.7346 2.40563 0.901624 1.05031
12417 1 -7.57675 -9.22534 -12.0611 -7.57675 -9.22534 14.5401 1.02123 0.0805951 -1.6958
5023 1 -11.7532 -6.96141 -13.0686 68.0503 -33.5626 -39.6698 -1.35168 0.597097 -1.31185
6865 1 -7.91769 -12.7735 -12.405 18.6835 -12.7735 -39.0062 0.847289 0.876071 2.27045
9869 1 -7.88323 -11.8508 -7.76777 -34.4844 14.7504 18.8334 -0.462093 0.0464063 -1.56416
11757 1 -7.39353 -11.2716 -7.01295 -7.39353 -37.8728 19.5882 -2.23198 -0.173598 1.24457
8425 1 -8.33925 -9.05567 -6.78577 -34.9404 -35.6568 -33.3869 -0.621389 -0.347828 1.06901
8311 1 -7.96381 -7.52763 -11.2654 45.2385 -60.7299 -37.8665 1.25235 -0.957617 -0.487879
3940 1 -12.9853 -9.42001 -9.1798 -12.9853 17.1811 -9.1798 -0.607186 -0.0453954 0.283651
7555 1 -6.92223 -11.9203 -11.5618 -6.92223 41.282 41.6405 1.14266 -0.585823 -0.919419
15277 1 -7.56376 -10.4897 -7.87493 -7.56376 -37.0909 -34.4761 0.655079 0.0825663 -0.522877
1451 1 -11.4506 -13.0275 -9.77542 -38.0518 -13.0275 -9.77542 -0.752334 -0.813862 -1.6239
9580 1 -10.4016 -12.6587 -12.1375 -10.4016 40.5436 41.0648 0.614419 -1.26828 -0.647418
5024 1 -12.2489 -6.63326 -12.2988 67.5545 -33.2344 -38.9 0.0504404 1.64564 -0.905965
6346 1 -11.7019 -10.8413 -10.3196 -11.7019 -10.8413 -10.3196 -0.981445 1.55246 1.62557
10030 1 -10.4201 -12.9591 -9.85547 -37.0213 13.6421 -9.85547 0.651528 1.36363 0.366278
2045 1 -10.3652 -9.60824 -9.30867 -36.9663 -36.2094 43.8936 0.0683122 0.982199 0.299627
192 1 -6.77324 -10.856 -10.1271 46.4291 -10.856 43.0752 -0.576417 0.865157 -0.508315
9272 1 -12.0429 -12.719 -11.9626 -65.2452 -12.719 14.6386 -2.54381 0.866844 0.295266
9053 1 -7.9273 -12.0544 -11.4076 45.275 -12.0544 -38.0088 -1.4508 1.77234 -1.24079
2977 1 -8.77985 -12.6774 -11.4746 -8.77985 -39.2785 15.1265 -0.683238 -0.571085 0.276352
3763 1 -7.53106 -10.8977 -11.3988 -34.1322 15.7034 -37.9999 0.348062 0.707227 1.05137
3461 1 -12.4323 -10.4397 -12.1296 14.1688 -10.4397 -65.3318 2.21854 1.53993 -1.22472
12470 1 -13.0574 -11.551 -9.79066 13.5438 -11.551 16.8105 1.51632 2.57645 -0.875283
7734 1 -13.1129 -9.08562 -12.4918 13.4882 17.5155 14.1094 0.411736 -0.278802 -0.515511
12814 1 -10.0252 -11.6913 -11.7618 -36.6263 14.9099 -11.7618 -0.262965 -0.717237 0.947759
6345 1 -11.0608 -11.5021 -10.7615 -11.0608 -11.5021 -10.7615 -0.124629 0.68541 0.667016
1512 1 -9.93554 -10.5118 -9.47396 43.2668 -10.5118 17.1272 -0.956837 1.81438 1.5609
2068 1 -9.37486 -9.62579 -11.1849 17.2263 -36.2269 15.4162 0.0708562 -0.641933 -0.842293
2067 1 -9.90157 -10.3782 -11.4296 16.6996 -36.9794 15.1716 0.364902 0.239652 -0.0375514
13314 1 -8.44168 -11.2758 -10.5799 -35.0428 -11.2758 -10.5799 1.41888 0.944931 -1.184
5571 1 -11.7896 -9.46205 -8.56801 -11.7896 -9.46205 -61.7703 -0.49823 0.401048 -0.324606
14709 1 -12.3104 -8.5322 -9.00098 14.2908 -35.1333 17.6002 -1.05333 -1.28093 0.675169
3462 1 -13.0297 -10.9346 -11.5841 13.5714 -10.9346 -64.7864 1.25818 0.398455 -2.15186
6337 1 -10.7324 -9.26403 -10.895 15.8687 -35.8652 -10.895 0.483114 1.04453 0.0546886
11219 1 -10.3596 -10.7149 -10.543 -10.3596 -10.7149 -10.543 0.749479 0.85743 -1.62873
9607 1 -9.34703 -10.5333 -10.3196 17.2541 -37.1344 42.8827 1.10906 -0.216619 1.35866
9608 1 -9.97107 -9.77982 -10.3096 16.6301 -36.381 42.8927 1.27838 -1.46095 -0.886486
3869 1 -9.39166 -8.97175 -11.9592 -9.39166 17.6294 -11.9592 0.912634 -0.0717661 0.116232
4666 1 -8.65844 -9.63945 -9.89902 17.9427 16.9617 -9.89902 -0.0903628 2.13253 2.29626
4896 1 -7.65721 -8.60559 -8.72184 18.9439 -8.60559 17.8793 -0.454613 0.168509 -0.639657
4665 1 -9.36935 -9.33017 -9.40335 17.2318 17.271 -9.40335 -1.1061 -1.01294 2.31864
4601 1 -8.18833 -11.1258 -9.68589 -8.18833 -11.1258 -36.287 -0.548847 0.412898 -1.20095
9915 1 -11.6097 -12.8251 -10.9528 14.9915 -12.8251 -10.9528 1.12906 -0.41972 0.832939
14710 1 -13.16 -8.11112 -8.8039 13.4412 -34.7123 17.7972 -1.02473 -1.85624 -0.549367
3067 1 -11.5992 -9.90281 -12.8072 41.6031 16.6983 13.794 0.395185 0.26524 1.02453
13737 1 -12.05 -8.03648 -11.6445 -12.05 -8.03648 41.5577 0.891425 -0.393983 -0.146121
67 1 -10.0908 -8.27898 -11.8768 -10.0908 18.3222 -38.478 1.01176 0.825 -1.94714
68 1 -10.9994 -8.23411 -11.6844 -10.9994 18.367 -38.2856 -0.24716 1.14512 1.06407
10443 1 -8.77197 -8.04407 -11.9401 17.8292 -34.6452 41.2622 -1.0874 -0.807377 -0.018178
3870 1 -8.55396 -9.08376 -11.5922 -8.55396 17.5174 -11.5922 0.479591 -2.11267 0.555169
12254 1 -7.93017 -8.45452 -11.1136 -34.5313 -35.0557 -11.1136 -1.41591 0.131779 0.00614667
15278 1 -7.684 -10.3515 -8.82283 -7.684 -36.9526 -35.424 -0.82105 0.402236 0.254686
13738 1 -12.1998 -7.39109 -10.9828 -12.1998 -7.39109 42.2195 -0.273837 -0.930194 0.179712
9916 1 -11.7453 -12.0608 -10.3307 14.8559 -12.0608 -10.3307 -0.2479 0.587712 -0.358652
7004 1 -10.792 -11.9384 -8.95182 -63.9943 -11.9384 -8.95182 1.58214 1.00074 -0.669164
4469 1 -12.5028 -7.41266 -9.62373 14.0983 -34.0138 -9.62373 0.470508 -0.3975 -0.252218
14998 1 -6.93547 -7.79432 -8.22168 19.6657 18.8068 -34.8228 -0.093052 -0.117322 0.118408
1741 1 -8.76901 -8.6457 -13.0861 -8.76901 -8.6457 -13.0861 -0.81158 -0.644368 1.45772
11908 1 -12.2332 -11.7978 -11.4754 -12.2332 14.8034 15.1258 -0.693536 -0.0387808 -1.01668
14578 1 -11.782 -11.3518 -12.7617 14.8191 15.2493 -39.3628 -0.281234 0.0969191 -0.628522
5954 1 -13.1281 -6.94086 -9.06242 -13.1281 46.2614 -35.6636 1.0572 0.517832 0.168093
1598 1 -7.00151 -7.0064 -7.4562 46.2008 46.1959 -34.0573 -1.06771 0.562742 -1.01645
12253 1 -7.68878 -8.20153 -12.0042 -34.2899 -34.8027 -12.0042 1.64677 -2.96792 0.0769619
12454 1 -8.84769 -9.43194 -7.57387 -8.84769 -62.6342 -34.175 -0.2183 0.42452 0.868229
5639 1 -9.45856 -12.185 -9.38835 -36.0597 14.4162 -35.9895 0.0881063 -0.468339 -1.39515
5573 1 -12.613 -13.0451 -9.66659 13.9882 13.5561 -9.66659 1.48249 -0.182597 -0.644258
7145 1 -11.1337 -12.0086 -11.713 15.4675 41.1937 14.8882 -1.37996 -0.0956568 -0.507739
2107 1 -12.8398 -8.26251 -10.9542 13.7613 -34.8637 -37.5553 1.61525 0.497168 -2.6571
5605 1 -12.6989 -8.81807 -7.06575 40.5034 17.7831 -7.06575 -2.22569 -0.354715 0.201689
6291 1 -8.48557 -12.5396 -8.92573 44.7167 14.0616 17.6754 1.25182 -0.787786 1.49542
11907 1 -12.6333 -11.8239 -12.3739 -12.6333 14.7772 14.2272 -0.159825 1.6557 -1.6185
6292 1 -8.00227 -13.0925 -9.57608 45.2 13.5086 17.0251 -0.197267 -1.804 -1.13897
3764 1 -7.63998 -11.3453 -12.2658 -34.2411 15.2558 -38.8669 -0.499056 -1.65084 1.39786
5926 1 -11.1454 -8.17108 -7.43466 42.0569 -8.17108 19.1665 0.0203038 -0.174179 -0.197363
2046 1 -11.072 -9.34818 -9.88938 -37.6732 -35.9493 43.3129 0.622106 0.669786 0.56759
5574 1 -12.0573 -12.335 -9.29141 14.5439 14.2661 -9.29141 0.382864 0.587035 -0.362514
6338 1 -11.5566 -8.76162 -10.9832 15.0446 -35.3628 -10.9832 0.706873 -0.0476694 1.43063
1391 1 -12.9488 -10.2766 -10.7928 -12.9488 -10.2766 -10.7928 -0.66015 0.724769 0.446219
1392 1 -12.1284 -9.73213 -10.8569 -12.1284 -9.73213 -10.8569 0.797854 -0.9034 0.631548
12813 1 -9.22056 -11.2891 -11.4605 -35.8217 15.312 -11.4605 -0.128484 -0.465856 0.197194
11311 1 -9.44801 -12.1091 -10.7257 -9.44801 67.6943 15.8755 -0.129088 -0.754946 0.227339
11312 1 -9.8145 -11.4758 -10.0913 -9.8145 68.3276 16.5099 0.445438 -0.301776 -0.789534
13313 1 -8.42135 -10.3267 -10.6978 -35.0225 -10.3267 -10.6978 1.05954 -0.631977 1.43365
14773 1 -9.93744 -7.86561 -7.04989 -9.93744 -7.86561 19.5513 1.59583 0.533498 -0.364852
12453 1 -8.21504 -10.0727 -7.25912 -8.21504 -63.275 -33.8603 1.02932 -1.58914 1.57874
3939 1 -12.2542 -9.22513 -9.7619 -12.2542 17.376 -9.7619 -1.01736 0.18451 1.56005
11105 1 -10.3885 -7.28957 -9.82854 42.8138 -7.28957 16.7726 -1.33552 0.0848367 -0.665276
1511 1 -10.9269 -10.5619 -9.65212 42.2754 -10.5619 16.949 -1.85723 0.214465 0.01592
4286 1 -9.17872 -11.0645 -9.36001 -9.17872 15.5367 -9.36001 1.18574 -0.00977298 -0.847528
8404 1 -10.4401 -8.21126 -9.25069 -10.4401 -8.21126 17.3505 0.123472 -0.743906 0.168698
8403 1 -9.6893 -8.08024 -9.74441 -9.6893 -8.08024 16.8567 0.600045 0.0211669 1.61946
12945 1 -8.05744 -9.6808 -8.22622 18.5437 43.5215 -8.22622 0.433555 0.851069 -1.29629
4602 1 -7.73005 -11.9398 -9.87357 -7.73005 -11.9398 -36.4747 0.84576 -1.41409 0.984501
15956 1 -7.31593 -7.29708 -12.4403 -33.9171 -33.8982 -39.0414 -1.63663 0.502558 -0.693611
11106 1 -11.2095 -6.83968 -10.0344 41.9928 -6.83968 16.5667 -0.526615 0.216696 -1.35896
11220 1 -10.919 -10.2246 -11.1114 -10.919 -10.2246 -11.1114 -1.88555 0.402565 2.92894
923 1 -11.5254 -7.88743 -9.20589 15.0757 18.7137 17.3953 0.842325 0.795682 0.0706859
3377 1 -9.58009 -8.75826 -10.783 17.0211 -8.75826 69.0204 1.07262 -0.293694 -0.632449
4895 1 -7.17263 -8.51077 -9.58056 19.4285 -8.51077 17.0206 -0.121479 1.22976 0.257224
13859 1 -8.29884 -8.25376 -9.95997 18.3023 -8.25376 -63.1623 0.575729 1.22135 -1.49169
13860 1 -8.89645 -8.27709 -9.17021 17.7047 -8.27709 -62.3725 -1.2139 -1.28764 -0.565413
5730 1 -7.26625 -7.52667 -10.4565 -33.8674 19.0745 69.3469 -0.563207 0.668056 0.81208
13503 1 -8.57174 -6.74491 -13.2758 -8.57174 -6.74491 13.3254 0.273818 0.0709508 1.75946
8452 1 -6.82718 -8.9735 -11.0379 -60.0295 17.6276 -37.639 -0.505263 -1.80068 0.223945
2108 1 -12.5294 -8.27072 -10.0016 14.0718 -34.8719 -36.6027 0.143081 0.204164 0.359972
9054 1 -7.84642 -12.6442 -10.6724 45.3559 -12.6442 -37.2736 -0.6996 0.0758984 -1.11749
9386 1 -13.3072 -12.7409 -12.2475 -66.5095 13.8603 -12.2475 0.289699 0.0025212 1.96459
3378 1 -10.3571 -8.24856 -10.637 16.244 -8.24856 69.1664 -0.955675 -0.369366 -0.194909
1539 1 -9.44073 -6.9962 -10.633 -36.0419 19.6049 42.5693 0.614113 -1.3206 -0.383801
3426 1 -11.3924 -7.00818 -11.7981 15.2087 -7.00818 -38.3992 0.512509 0.712609 -0.29635
2920 1 -8.31755 -7.31619 -9.357 -34.9187 -7.31619 17.2441 0.289083 0.448096 -0.0266297
12063 1 -10.6766 -7.01892 -6.76184 15.9245 -33.6201 19.8393 -0.29884 0.263846 1.64811
5729 1 -6.69304 -6.78118 -10.1466 -33.2942 19.82 69.6568 1.59093 0.355823 -0.264953
5526 1 -6.97851 -11.0728 -8.93663 -6.97851 -37.674 -8.93663 0.143264 0.218755 0.260922
5144 1 -11.5728 -8.74376 -12.6282 -11.5728 -35.3449 13.9729 1.11643 0.527358 -1.30085
10201 1 -9.98408 -6.73154 -7.8528 16.6171 19.8696 -34.4539 2.06631 0.854709 1.28117
3053 1 -7.65648 -10.3224 -10.129 72.147 16.2787 -36.7302 -1.1399 -0.258886 0.294477
3078 1 -6.78938 -11.9172 -7.43952 19.8118 14.6839 -7.43952 1.1482 -0.935721 1.1242
12637 1 -9.93826 -11.9589 -8.4135 -9.93826 -11.9589 18.1877 0.365745 1.31057 0.339143
15226 1 -12.5591 -11.2885 -10.637 -12.5591 15.3126 -10.637 2.06707 0.523967 -1.25696
3054 1 -6.91171 -9.9091 -9.73578 72.8917 16.692 -36.3369 2.15514 0.952901 -1.2261
1020 1 -12.4291 -12.9541 -6.72419 -39.0302 -39.5552 19.877 1.13638 -0.142476 1.28446
494 1 -12.5998 -12.1784 -8.3288 40.6025 -12.1784 44.8735 -0.0652928 -1.06262 1.86762
235 1 -13.2473 -10.3037 -7.5739 39.955 -10.3037 19.0272 -0.340377 -0.0971993 -0.286506
11262 1 -11.0366 -12.5098 -6.75706 15.5646 40.6925 -6.75706 -0.489028 -1.03195 -0.224181
11261 1 -11.4408 -12.2292 -7.60016 15.1604 40.9731 -7.60016 1.5939 -1.0439 0.000992304
12638 1 -9.00001 -11.8702 -8.16236 -9.00001 -11.8702 18.4388 -0.976004 0.614143 0.333634
7683 1 -9.82693 -10.8756 -8.40522 16.7742 15.7255 18.1959 2.60271 -0.168131 0.834414
6237 1 -6.7371 -11.9287 -9.57813 46.4652 14.6724 43.6242 1.45379 0.3704 0.673766
7556 1 -6.97679 -11.6777 -10.6032 -6.97679 41.5245 42.5991 -0.673555 -1.64696 0.90121
14170 1 -13.1735 -11.8937 -7.52611 13.4277 -11.8937 -34.1273 0.327399 1.09769 -0.100905
12946 1 -8.54371 -9.16379 -8.82538 18.0574 44.0385 -8.82538 1.0074 0.381166 1.35259
15 1 -12.1474 -10.6877 -7.01029 -12.1474 15.9134 -7.01029 0.772518 -0.272672 0.525822
2169 1 -12.3922 -11.2708 -9.14176 -12.3922 -37.872 17.4594 -0.25451 0.0146162 2.37108
14887 1 -12.9557 -10.4024 -9.77148 13.6454 -37.0035 -9.77148 -0.835684 -0.0845727 1.68038
14888 1 -12.0769 -10.1894 -9.45836 14.5243 -36.7905 -9.45836 -0.721954 0.268284 1.54641
14802 1 -10.6625 -11.3372 -7.68013 15.9386 -11.3372 -7.68013 1.05924 1.05284 2.1014
14801 1 -10.535 -10.4273 -7.72779 16.0662 -10.4273 -7.72779 -0.628607 2.33788 0.284375
4285 1 -8.81323 -10.2346 -8.9739 -8.81323 16.3665 -8.9739 -0.912054 -0.745403 0.474613
7684 1 -9.57543 -9.92821 -8.33811 17.0257 16.6729 18.263 -0.42604 -0.167139 -0.344745
3063 1 -9.29328 -10.3293 -7.36111 -9.29328 69.4742 -7.36111 -0.237042 -0.357867 -0.214882
6866 1 -7.41753 -13.0055 -11.5171 19.1836 -13.0055 -38.1182 -0.683079 0.525458 1.27616
8863 1 -10.5291 -12.7309 -8.03721 16.072 -12.7309 -34.6384 -1.04446 -0.814187 0.706021
5572 1 -11.3101 -8.57327 -8.41084 -11.3101 -8.57327 -61.6131 0.647369 0.49772 0.347396
9280 1 -11.5068 -11.4194 -8.24856 -11.5068 15.1818 -8.24856 3.01533 -1.23576 0.0263812
924 1 -11.3873 -8.31395 -10.0051 15.2139 18.2872 16.5961 0.343711 0.485119 -0.896372
9279 1 -11.1352 -10.558 -8.67059 -11.1352 16.0432 -8.67059 -0.748913 0.456719 1.0468
9028 1 -10.3272 -7.41964 -8.55885 -10.3272 -34.0208 44.6434 -1.43649 1.34471 0.277569
9027 1 -11.1838 -7.24516 -8.15793 -11.1838 -33.8463 45.0444 1.28097 0.528775 -0.860894
15789 1 -9.56667 -8.87245 -8.40294 -9.56667 -35.4736 -35.0041 0.402399 -0.387279 -0.633587
14437 1 -8.05061 -8.63673 -7.74859 71.7528 -8.63673 18.8526 -0.569539 1.43568 1.3453
14438 1 -7.45715 -8.08789 -7.29418 72.3463 -8.08789 19.307 0.630563 -0.609603 1.75105
2171 1 -7.92763 -11.3222 -13.2926 -61.1299 -11.3222 13.3085 0.77422 -0.198782 -0.803196
1540 1 -9.40106 -7.18854 -11.6091 -36.0022 19.4126 41.5932 -2.33485 -1.18707 0.963117
6426 1 -7.38498 -9.55813 -7.21479 72.4185 -9.55813 19.3864 -0.05246 -0.219821 -1.33862
7282 1 -8.18485 -6.61238 -8.17718 -8.18485 19.9888 -61.3795 0.261198 0.186842 1.07402
13684 1 -6.79238 -7.6807 -11.5442 -33.3935 18.9204 -11.5442 -1.40241 -1.23878 0.00254309
3846 1 -12.1998 -7.37075 -6.99764 -38.801 -7.37075 -6.99764 0.629619 -0.291089 -2.3294
3436 1 -7.16258 -9.50534 -8.7794 19.4386 -9.50534 -8.7794 0.850037 1.00491 -0.0118149
8148 1 -8.98533 -7.22361 -7.53348 -8.98533 -7.22361 -34.1346 0.51839 -0.169213 0.60984
9870 1 -8.59038 -12.0575 -7.16304 -35.1915 14.5437 19.4381 -0.731687 -0.0803351 1.28464
2772 1 -7.54116 -12.4519 -6.9299 45.6611 14.1492 -6.9299 0.444802 -0.235804 -0.514666
8147 1 -8.29512 -7.6791 -8.12274 -8.29512 -7.6791 -34.7239 0.0413841 -0.33275 -0.826773
3297 1 -12.5603 -11.688 -6.73211 -39.1614 -11.688 -6.73211 0.32019 0.0488517 -1.12834
13504 1 -8.30377 -6.97815 -12.4203 -8.30377 -6.97815 14.1809 0.710998 0.302028 -1.11771
11434 1 -8.63328 -11.0644 -6.85543 17.9679 15.5367 -6.85543 2.5445 0.912738 0.617589
2919 1 -9.28694 -7.14833 -9.44307 -35.8881 -7.14833 17.1581 1.03873 -0.203054 -0.478828
10815 1 -7.73422 -6.66639 -10.0471 -34.3354 19.9348 -10.0471 1.27961 0.256481 -0.30006
14997 1 -7.2389 -7.16733 -8.984 19.3622 19.4338 -35.5851 -0.0933458 -0.43447 0.641331
1789 1 -13.0418 -7.94096 -12.4979 13.5594 18.6602 -12.4979 0.135793 -0.886223 -0.0921653
11375 1 -7.96094 -12.8903 -7.87606 18.6402 40.312 -7.87606 -0.599208 0.221367 0.182329
15790 1 -9.40013 -7.94708 -8.33226 -9.40013 -34.5482 -34.9334 0.712509 -0.902225 -0.672588
3471 1 -10.5782 -9.47831 -8.2496 -10.5782 43.724 18.3515 -0.250314 -1.16373 -0.543392
3819 1 -6.84022 -12.6128 -12.53 -6.84022 -12.6128 -12.53 -0.390682 0.644189 0.772249
7621 1 -9.45674 -12.7351 -7.82275 -9.45674 -12.7351 18.7784 0.200349 0.922935 -0.636957
2170 1 -11.4468 -11.404 -9.50468 -11.4468 -38.0051 17.0965 -0.188396 2.69919 0.329398
3615 1 -9.1044 -8.42257 -7.44839 44.0979 18.1786 -34.0495 -1.26221 0.406805 -0.640142
8587 1 -8.0116 -11.2445 -8.62178 45.1907 -37.8457 44.5805 0.74135 1.52387 0.371783
4753 1 -10.2462 -12.0711 -7.12801 -10.2462 41.1312 19.4731 -1.64456 0.449852 0.0484013
11290 1 -12.4688 -7.4555 -8.23127 40.7335 -60.6578 18.3699 -0.210559 -0.773738 -0.735099
8588 1 -8.58545 -10.6927 -8.08872 44.6168 -37.2938 45.1136 -0.389732 0.485552 1.3381
13506 1 -9.44132 -6.86767 -12.5525 17.1598 46.3346 14.0486 1.01162 0.519415 0.840925
5897 1 -9.26397 -13.1991 -10.7109 43.9383 13.4021 15.8902 1.00801 -0.539385 0.269203
8963 1 -10.8191 -8.08926 -12.8093 -10.8191 -34.6904 13.7919 0.238244 1.1242 -0.0775111
10028 1 -11.218 -7.56608 -10.8984 15.3832 -7.56608 -10.8984 0.498316 0.313395 -0.568225
2172 1 -8.38279 -10.7471 -12.7535 -61.5851 -10.7471 13.8477 1.49059 -0.976571 1.19268
3472 1 -11.3238 -9.60886 -7.6531 -11.3238 43.5934 18.948 -0.931525 0.0382042 -2.03004
13594 1 -10.1543 -9.52592 -7.249 -10.1543 17.0752 -33.8501 1.02637 0.016117 -0.858032
10027 1 -10.3685 -7.22186 -11.1922 16.2326 -7.22186 -11.1922 -0.187114 0.858746 0.517816
4754 1 -10.008 -13.0149 -6.97583 -10.008 40.1874 19.6253 -1.77595 -0.24189 -0.434744
3064 1 -9.53936 -11.2382 -7.504 -9.53936 68.5653 -7.504 0.557733 0.294451 0.51446
6425 1 -6.9732 -8.84083 -7.76087 72.8302 -8.84083 18.8403 -0.100531 -1.40177 -0.25409
1038 1 -11.5944 -13.1989 -7.23187 -11.5944 -39.8001 -7.23187 -0.836878 0.0216233 -0.96339
1682 1 -13.0324 -10.5467 -8.60467 -13.0324 16.0545 -35.2058 0.339678 -1.45305 0.106885
12418 1 -7.55075 -8.74232 -12.9176 -7.55075 -8.74232 13.6836 0.653535 0.930813 0.309683
8964 1 -9.86689 -8.23922 -12.821 -9.86689 -34.8404 13.7802 -1.48626 -0.0282196 0.953727
7146 1 -10.7361 -11.6135 -12.5167 15.865 41.5888 14.0844 -0.00497705 -0.0831309 -0.131723
13593 1 -10.3429 -8.83535 -6.68039 -10.3429 17.7658 -33.2815 0.918558 -1.24446 1.62216
8451 1 -7.74538 -9.3872 -10.7799 -60.9477 17.2139 -37.3811 0.499227 -0.39082 1.12069
12465 1 -10.0553 -10.3588 -6.6567 -10.0553 -10.3588 -33.2578 0.865538 1.09505 0.422017
12466 1 -9.43102 -9.56089 -6.59929 -9.43102 -9.56089 -33.2004 -0.853543 0.0261264 1.94778
111 1 -7.49085 -12.3782 -13.2809 -60.6931 14.2229 13.3203 -1.60834 0.443378 -0.882955
6611 1 -8.99534 -13.1782 -13.2231 44.207 -13.1782 -66.4254 0.22978 -0.921806 -0.510663
5812 1 -10.0902 -10.8239 -13.2429 43.1121 15.7773 39.9594 0.502398 -1.47479 -0.176348
8668 1 -9.22796 -7.37677 -6.42151 -9.22796 -7.37677 -6.42151 -1.54772 2.02286 0.26439
8669 1 -8.5091 -11.4222 -5.75807 18.092 15.179 47.4442 0.183735 1.0117 -0.226721
8718 1 -10.8594 -11.7588 -5.81964 15.7418 14.8424 -5.81964 1.98994 -0.20692 -3.52827
870 1 -12.0369 -12.5456 -2.53969 -65.2392 14.0555 24.0615 1.00487 -0.815757 -0.93591
3652 1 -11.8762 -12.2276 -6.22379 41.3261 14.3735 -6.22379 -1.2857 1.24304 0.903032
5680 1 -12.3851 -12.3659 -3.43876 -38.9863 -12.3659 -3.43876 0.338604 -1.09928 -0.436529
5925 1 -11.879 -8.39149 -6.82853 41.3233 -8.39149 19.7726 0.5537 -2.44605 -1.04719
10457 1 -8.55528 -12.4339 -5.41018 -8.55528 -12.4339 21.191 -0.843286 1.4977 0.362643
3298 1 -12.8986 -11.516 -5.84618 -39.4998 -11.516 -5.84618 1.62107 -1.10374 0.319914
10458 1 -8.31464 -12.5569 -4.50976 -8.31464 -12.5569 22.0914 0.496576 -0.621001 1.85086
14015 1 -11.1682 -7.16579 -3.68871 15.4329 -7.16579 22.9124 0.195828 0.44994 1.34294
2555 1 -12.0674 -9.26413 -5.93601 -12.0674 -9.26413 73.8674 0.862598 -0.450895 -0.969365
11275 1 -12.8559 -12.135 -1.772 -12.8559 -12.135 -1.772 -0.962357 -0.328827 0.28404
8717 1 -10.8327 -10.8068 -5.95782 15.7685 15.7943 -5.95782 1.51535 0.403282 -0.629849
6964 1 -10.5487 -10.1526 -5.15262 42.6536 -36.7537 21.4485 0.642022 0.647517 0.637728
6963 1 -10.4711 -9.71648 -6.01107 42.7312 -36.3176 20.5901 0.733609 0.340644 -0.319037
1464 1 -7.09896 -11.4495 -3.91178 -33.7001 41.7528 -3.91178 -1.29474 -0.854128 -1.1988
11433 1 -8.94764 -10.532 -6.09379 17.6535 16.0691 -6.09379 0.627541 -0.679281 -2.30647
575 1 -7.15093 -11.398 -4.97887 -7.15093 41.8043 21.6223 3.31534 -1.49166 0.0987906
8670 1 -7.80068 -10.8211 -5.98009 18.8005 15.7801 47.2222 1.00622 0.119757 -0.0831744
676 1 -8.96215 -12.926 -1.0712 -8.96215 40.2763 25.5299 0.125672 -0.657296 1.55292
12064 1 -10.2988 -7.69495 -6.12107 16.3023 -34.2961 20.4801 -0.054113 -0.693094 -0.11227
13929 1 -12.745 -13.1102 -5.58185 -12.745 13.491 47.6204 -0.757618 -0.438998 0.565559
5840 1 -10.3517 -6.94084 -4.54174 16.2495 -86.7443 22.0594 2.07221 -0.308051 0.352579
14931 1 -12.6305 -9.02014 -3.2817 13.9706 -35.6213 -29.8828 -1.25331 -0.21965 1.98171
11571 1 -9.47998 -8.75051 -0.76389 -9.47998 17.8506 -27.365 -0.384971 -1.4235 -0.605745
871 1 -8.82456 -9.3021 -5.84413 44.3777 70.5013 -5.84413 0.524902 -0.3417 -1.6816
9164 1 -7.32572 -9.1946 -5.17702 -7.32572 17.4065 21.4241 0.648806 0.27366 -0.299572
100 1 -10.9236 -13.3174 -0.773192 -10.9236 13.2837 -0.773192 -2.15814 -1.51906 0.0167132
4700 1 -11.079 -8.32032 -6.18445 15.5221 -8.32032 20.4167 1.61688 0.262756 -1.11386
12305 1 -12.2079 -7.15316 -1.93448 14.3933 -7.15316 -1.93448 -0.477668 -0.458403 0.245786
8896 1 -8.8971 -12.9262 -3.34376 -35.4982 40.2761 -3.34376 1.0762 -0.0839135 0.449107
8667 1 -9.13841 -7.852 -5.64641 -9.13841 -7.852 -5.64641 0.15178 -0.659535 0.0323623
1046 1 -7.92505 -13.1774 -0.632067 18.6761 -13.1774 -27.2332 0.505122 -0.922729 -1.09851
4699 1 -10.7172 -8.91234 -5.43701 15.884 -8.91234 21.1641 -0.606417 0.551124 -0.781666
13775 1 -10.0084 -7.3609 -1.29391 -63.2107 -33.962 -1.29391 0.438351 -0.150326 -0.830606
13282 1 -9.91162 -12.4808 -2.85387 43.2907 14.1204 -2.85387 -0.266667 -0.512852 -1.79215
5216 1 -7.47724 -12.9682 -5.207 -60.6795 -12.9682 -5.207 0.555377 0.400892 -1.20159
12115 1 -9.31777 -12.4417 -6.48943 -9.31777 -39.0428 -6.48943 -2.51282 0.40199 -0.686422
1813 1 -7.1617 -7.95833 -1.73993 -33.7628 -34.5595 -28.3411 -0.571522 -0.123658 0.554672
14882 1 -12.945 -8.43173 -5.73233 40.2573 44.7706 -5.73233 0.114202 -1.02104 -0.10522
1301 1 -10.9367 -7.01085 -5.66454 -37.5379 19.5903 47.5377 0.268949 0.924458 1.39277
1302 1 -11.6528 -7.03536 -5.05205 -38.254 19.5658 48.1502 -1.64287 0.472034 0.27041
2663 1 -9.76464 -12.693 -5.02107 -9.76464 40.5093 21.5801 1.44763 -0.97813 -0.319341
5250 1 -9.99266 -13.0882 -3.80883 43.2096 -13.0882 -3.80883 0.50458 1.00525 0.179212
2771 1 -8.2068 -12.7128 -6.24563 44.9955 13.8884 -6.24563 -0.472315 0.272326 -1.16529
4312 1 -11.3187 -7.6589 -0.852616 41.8835 -7.6589 25.7485 1.2028 -2.05364 0.929927
7589 1 -12.0446 -11.5112 -1.4868 -65.2469 41.6911 -28.088 0.105386 -0.304965 0.0639972
14932 1 -12.0924 -9.36815 -3.95113 14.5088 -35.9693 -30.5523 1.56007 0.10644 -2.58591
15948 1 -11.2593 -6.5959 -1.54461 -37.8605 -59.7982 25.0565 -0.000780438 1.39058 -1.22447
10794 1 -11.8465 -12.5716 -5.28974 14.7547 -12.5716 -5.28974 -2.3116 1.28535 -0.454433
15560 1 -13.0768 -9.49569 -5.91179 -39.678 -9.49569 -5.91179 1.63351 -0.311088 -2.96136
6576 1 -7.30125 -8.18093 -3.27813 -7.30125 -8.18093 -29.8793 -0.398364 -0.73338 -1.32322
14545 1 -12.8581 -10.5996 -1.17797 -39.4592 -10.5996 -1.17797 0.0555545 -0.921596 -0.0880494
11276 1 -12.4061 -12.6997 -1.07565 -12.4061 -12.6997 -1.07565 -1.7221 -1.8287 -1.24416
2664 1 -9.41695 -11.9157 -5.49184 -9.41695 41.2866 21.1093 -0.919573 -0.721076 -0.542047
9508 1 -10.0819 -12.4689 -0.65913 -36.6831 40.7334 52.5432 -0.882173 -0.0571495 0.713238
13944 1 -7.24456 -8.01166 -5.43448 -7.24456 -8.01166 -5.43448 1.76319 2.43621 1.21316
2556 1 -11.2672 -9.35293 -6.57403 -11.2672 -9.35293 73.2294 1.66462 1.9219 -1.45411
14547 1 -9.24404 -13.2858 -5.70211 -9.24404 -39.8869 -5.70211 -0.3476 -1.17817 1.74827
10793 1 -11.7372 -12.5721 -4.39503 14.864 -12.5721 -4.39503 -1.3489 -0.849501 -1.40752
7205 1 -10.6874 -13.304 -2.92071 -10.6874 -13.304 -29.5219 -0.465115 -1.36846 0.93089
576 1 -8.05539 -11.5862 -4.90838 -8.05539 41.6161 21.6928 -0.0692568 -0.518888 -0.827988
14527 1 -10.2731 -11.6029 -4.75394 16.3281 14.9982 48.4484 -0.534976 0.624067 0.785528
14942 1 -6.52032 -12.5301 -6.49077 -6.52032 -39.1313 -33.0919 1.80894 -0.181817 -0.349421
12655 1 -9.84169 -10.9166 -5.64042 -9.84169 -37.5178 -32.2416 -1.16046 1.09022 -0.567708
6110 1 -7.89449 -12.2814 -3.58306 18.7067 -12.2814 -30.1842 -0.891925 -1.67846 -0.539595
724 1 -9.32254 -9.97228 -5.06214 -35.9237 -9.97228 -5.06214 1.7428 -0.097741 -0.491929
15255 1 -7.31712 -13.2094 -3.35834 -7.31712 -39.8105 -56.5606 -0.786892 0.516495 1.70245
3344 1 -12.1122 -11.7344 -4.89671 -12.1122 -38.3356 -4.89671 0.616445 1.57323 0.544662
6762 1 -11.2614 -11.5113 -4.16843 15.3398 15.0898 -30.7696 0.77245 0.981346 0.944765
14472 1 -8.80577 -10.992 -0.453469 17.7954 42.2103 26.1477 0.400904 -0.201079 -0.131789
3141 1 -11.5116 -11.9171 -3.28424 -38.1127 -11.9171 -3.28424 1.86651 -0.666909 0.869559
6761 1 -11.5855 -10.8942 -4.77944 15.0156 15.7069 -31.3806 -1.55607 0.0222866 0.104106
14528 1 -10.8602 -12.3502 -4.92159 15.741 14.2509 48.2807 -0.264175 0.0877979 -0.625936
12656 1 -9.96041 -11.4648 -6.39714 -9.96041 -38.066 -32.9983 0.27422 0.0693913 1.03208
872 1 -9.68499 -9.00035 -5.49463 43.5173 70.8031 -5.49463 -1.50402 1.85084 0.343201
723 1 -8.44544 -10.2834 -4.87989 -35.0466 -10.2834 -4.87989 -0.206435 0.640004 -1.72253
14989 1 -7.57919 -7.97066 -4.25526 -34.1803 -7.97066 48.947 0.726818 -0.677132 0.261343
9163 1 -7.75807 -9.53318 -5.97071 -7.75807 17.068 20.6304 -0.0616538 0.179342 -1.4604
4569 1 -12.6052 -10.2869 -3.58181 13.9959 -10.2869 -3.58181 -1.59708 2.08908 -1.39599
9273 1 -12.8157 -7.96659 -4.52554 13.7854 18.6346 22.0756 1.28435 0.838638 1.14677
15510 1 -12.4597 -8.91784 -4.97664 14.1415 -8.91784 -31.5778 0.771217 1.62052 -0.853147
15509 1 -11.8461 -8.27216 -5.29719 14.755 -8.27216 -31.8983 0.12484 -1.26283 1.93277
10456 1 -10.0396 -7.89296 -4.9839 -10.0396 -7.89296 -4.9839 0.560335 -0.698218 -0.645445
8571 1 -9.34463 -9.8669 -3.99304 17.2565 16.7342 -30.5942 -1.54622 0.844795 0.632179
8426 1 -8.06481 -8.58141 -6.08827 -34.666 -35.1826 -32.6894 0.225332 2.17776 0.43381
8572 1 -9.00633 -9.41395 -3.23212 17.5948 17.1872 -29.8333 -0.580072 -1.59611 2.35988
2396 1 -9.27651 -8.57048 -4.60868 -62.4788 -8.57048 -31.2098 -0.203248 0.223248 -1.24939
14443 1 -13.0772 -7.89625 -3.46922 -13.0772 -7.89625 -30.0704 -0.168878 0.892186 0.684529
14881 1 -12.7907 -7.56301 -5.52618 40.4116 45.6393 -5.52618 1.13642 0.595632 -0.937485
10455 1 -11.0246 -7.80077 -4.87715 -11.0246 -7.80077 -4.87715 -1.04659 1.5252 0.0625669
4356 1 -8.48121 -9.0797 -4.92925 44.7211 17.5214 -4.92925 -0.585319 1.00199 -0.825305
10836 1 -7.83163 -7.14167 -5.60533 45.3707 -33.7428 20.9958 0.654292 -0.108784 0.155914
4355 1 -8.43875 -8.1044 -4.80729 44.7635 18.4967 -4.80729 1.3403 -0.703847 -0.196074
5447 1 -6.62225 -7.2063 -5.45181 -6.62225 45.996 -32.053 1.11861 -1.24223 0.652961
747 1 -8.04949 -7.19072 -3.66343 18.5517 19.4104 -30.2646 0.987404 0.640743 0.756189
869 1 -11.5288 -12.6292 -1.67873 -64.7311 13.9719 24.9224 0.782385 0.320346 -0.136922