ITEM: TIMESTEP
35000
ITEM: NUMBER OF ATOMS
16000
ITEM: BOX BOUNDS pp pp pp
-1.3300573168565002e+01 1.3300573168565002e+01
-1.3300573168565002e+01 1.3300573168565002e+01
-1.3300573168565002e+01 1.3300573168565002e+01
ITEM: ATOMS id type x y z xu yu zu vx vy vz
14945 1 -13.3077 -10.0241 -12.3934 -13.3077 16.577 -12.3934 -0.41411 -0.623537 -0.533298
15 1 -11.6632 -13.1915 -7.2523 -11.6632 13.4096 -7.2523 -0.277953 0.930854 0.432422
9310 1 -12.4594 -10.8058 -11.8119 14.1417 42.3965 -38.4131 -0.940065 -0.163959 -0.34102
9652 1 -12.6145 -11.9302 -11.6856 13.9867 -38.5314 -64.8879 -0.673751 0.925392 0.331623
12946 1 -7.99382 -9.64481 -11.7448 18.6073 43.5575 -11.7448 1.08825 1.02106 1.05863
13971 1 -10.2574 -11.3537 -11.8077 16.3437 -11.3537 14.7935 -0.339075 0.676435 -0.191749
9651 1 -11.6903 -11.6861 -11.7055 14.9109 -38.2872 -64.9078 -0.494326 -0.348657 0.26334
14709 1 -9.56072 -10.1133 -12.5413 17.0404 -36.7145 14.0598 -1.1157 0.139203 -0.250226
236 1 -9.23629 -12.5994 -9.78269 43.966 -12.5994 16.8185 -0.512911 -0.240664 1.56034
9082 1 -11.7275 -8.1408 -12.8217 -11.7275 18.4604 -12.8217 -2.67553 -2.48586 0.278359
1540 1 -9.58608 -6.8475 -10.0425 -36.1872 19.7536 43.1598 -0.0970332 -0.342145 -1.17264
13683 1 -7.254 -10.3442 -11.8083 -33.8551 16.2569 -11.8083 -0.778723 1.27347 -0.332716
111 1 -12.0194 -10.75 -13.1144 -65.2217 15.8512 13.4868 0.392912 -0.10081 -1.18437
9378 1 -13.1422 -10.2367 -9.03894 13.459 -63.439 17.5622 -0.0720075 1.65722 -0.929503
4896 1 -7.30318 -12.4074 -11.2777 19.298 -12.4074 15.3234 0.509629 1.72494 0.354525
3023 1 -12.9683 -9.31062 -10.8895 -39.5694 -9.31062 -10.8895 -0.800949 -0.288179 -0.42101
10869 1 -8.52988 -12.9756 -11.7245 44.6724 -12.9756 14.8767 1.33808 0.14529 -1.04734
8007 1 -9.02241 -12.2519 -12.5935 17.5787 14.3493 14.0077 0.506291 -1.38629 0.317586
8008 1 -9.41143 -11.3943 -12.4304 17.1897 15.2069 14.1707 0.803491 -0.461287 -0.742006
9571 1 -10.3298 -12.4173 -12.445 -10.3298 40.785 -12.445 -0.400838 -0.97561 1.00575
12961 1 -7.32435 -13.1257 -8.00056 19.2768 -13.1257 18.6006 -0.130132 -0.319945 -1.59736
1665 1 -13.2577 -12.4518 -12.1386 13.3434 40.7505 -38.7397 -0.86621 0.35583 -0.757161
14888 1 -12.3169 -11.2507 -6.99642 14.2842 -37.8519 -6.99642 2.36769 0.785015 1.24141
9869 1 -13.2065 -13.1665 -7.0749 -39.8076 13.4347 19.5262 -0.542961 -1.04461 0.796402
9445 1 -8.60796 -8.24986 -13.0202 -8.60796 -8.24986 -39.6213 -0.622409 0.0813443 -0.303478
12184 1 -7.73275 -8.52363 -12.413 18.8684 -35.1248 14.1881 -0.337463 -0.145187 2.11135
13594 1 -11.2059 -11.3024 -12.5088 -11.2059 15.2987 -39.11 -0.572198 0.844598 0.700473
11670 1 -12.6203 -6.70874 -9.30783 -39.2215 -6.70874 -35.909 0.184746 0.0307709 0.792193
5606 1 -11.0036 -6.82702 -10.9065 42.1987 19.7741 -10.9065 0.693766 -0.2053 -1.13665
8621 1 -13.3441 -11.5844 -7.66887 13.2571 -11.5844 18.9323 -0.737984 1.4623 1.21991
5526 1 -13.2224 -11.6585 -8.73974 -13.2224 -38.2597 -8.73974 -0.577938 -0.700672 -0.508566
12945 1 -8.53539 -10.0208 -12.4403 18.0658 43.1815 -12.4403 0.420156 2.04877 -0.203935
7389 1 -6.70263 -8.4256 -11.9795 -33.3038 18.1755 -11.9795 1.17128 0.0727891 -1.18351
566 1 -7.89162 -12.6955 -6.8131 18.7095 13.9056 -33.4142 -0.888605 0.148008 2.55815
12470 1 -13.0489 -9.98048 -10.2254 13.5522 -9.98048 16.3758 -0.686139 -0.189094 -1.35597
5573 1 -10.8988 -8.60144 -11.6886 15.7024 17.9997 -11.6886 -0.747099 1.71091 1.10095
11290 1 -11.7649 -7.06477 -7.10702 41.4374 -60.2671 19.4941 -1.06525 2.91607 -0.744191
8348 1 -9.35211 -9.118 -12.618 43.8502 17.4831 -12.618 -1.71672 -0.783933 0.953061
8347 1 -9.41512 -8.17 -12.3441 43.7872 18.4311 -12.3441 -0.984221 0.614324 -1.11106
7390 1 -7.33355 -8.39545 -11.2571 -33.9347 18.2057 -11.2571 1.09806 -0.19805 0.986583
10591 1 -12.956 -12.0219 -13.1165 -12.956 14.5792 13.4846 -0.831636 0.935231 0.0584457
9363 1 -8.62756 -11.5406 -9.23615 17.9736 -11.5406 -9.23615 -1.33991 -1.32636 1.63544
15834 1 -11.2519 -9.09217 -13.0554 -11.2519 17.509 -13.0554 0.6303 -0.0451949 1.30433
1790 1 -12.4796 -7.85902 -7.4455 14.1216 18.7421 -7.4455 0.357072 -1.50371 0.665944
1233 1 -6.91715 -8.96791 -10.1352 19.684 -8.96791 -10.1352 0.327816 1.54668 2.95522
9364 1 -8.43042 -12.4824 -9.03103 18.1707 -12.4824 -9.03103 0.198458 -0.505503 0.757347
4164 1 -12.9118 -9.78302 -7.66518 -39.513 16.8181 -7.66518 0.145844 1.97618 1.15264
15448 1 -10.2459 -12.8084 -9.63238 16.3553 -12.8084 16.9688 -0.48635 1.12339 0.759435
8861 1 -13.1384 -7.8198 -10.4656 -13.1384 -7.8198 42.7367 -1.72838 0.763063 1.52882
3385 1 -7.51022 -10.3657 -12.9841 -7.51022 16.2355 -12.9841 -0.219299 0.859458 0.38289
337 1 -8.79279 -13.004 -8.16277 44.4095 -39.6052 -61.3651 -0.0787809 -0.0811668 0.610888
15170 1 -13.4076 -9.40761 -8.44259 13.1935 -9.40761 -35.0437 0.605865 1.13367 1.53547
3386 1 -7.11622 -11.2651 -13.1079 -7.11622 15.336 -13.1079 -0.121138 1.80361 -0.891904
11713 1 -6.94767 -11.7924 -8.1424 -33.5488 14.8087 -8.1424 -0.378163 -0.546529 0.893085
13593 1 -11.9559 -11.8229 -12.828 -11.9559 14.7783 -39.4292 0.00274829 0.108758 -0.285284
8538 1 -12.8887 -10.9178 -10.782 -39.4899 -64.1201 42.4203 -0.0368289 0.484613 -2.2551
277 1 -13.1066 -6.76897 -11.3955 13.4946 -6.76897 -11.3955 -0.175512 0.241331 2.725
14577 1 -11.1172 -11.8155 -10.9265 15.4839 14.7856 -37.5277 -0.808038 0.464461 -0.34252
13972 1 -10.1263 -12.2336 -11.4167 16.4748 -12.2336 15.1844 -2.72784 1.14661 0.332851
5886 1 -8.04152 -10.9991 -11.8198 18.5596 15.6021 14.7814 0.744344 -2.00869 -0.238848
5885 1 -8.6362 -11.8347 -11.6729 17.9649 14.7665 14.9282 -0.582313 0.134179 1.95096
5973 1 -10.6913 -9.05194 -6.71942 -10.6913 -35.6531 19.8817 0.395945 -0.931644 -0.80122
11101 1 -9.02052 -7.16353 -9.25989 17.5806 19.4376 -9.25989 -1.05328 -0.91811 -0.0826115
6348 1 -12.1648 -9.14719 -8.12669 -38.766 17.454 18.4745 -0.516835 -0.090965 0.808355
6347 1 -12.9583 -8.77937 -7.7357 -39.5595 17.8218 18.8654 -0.00367069 -1.05192 1.61638
4178 1 -8.94063 -7.28383 -13.2793 17.6605 -7.28383 -13.2793 -0.504146 0.57822 -1.85344
7622 1 -11.9027 -10.6523 -10.9569 -11.9027 -10.6523 15.6443 -1.34883 0.0774404 2.04674
15711 1 -9.87987 -7.07857 -12.716 16.7213 19.5226 13.8851 0.164547 0.848268 0.372818
6338 1 -10.0161 -11.7123 -10.2912 16.585 -38.3135 -10.2912 -0.17769 -2.02224 -0.194796
7556 1 -10.0532 -10.3143 -11.603 -10.0532 42.888 41.5993 0.917836 0.796125 -0.529614
4895 1 -7.45667 -12.3147 -10.3513 19.1445 -12.3147 16.2498 0.755655 -1.18214 0.646227
3680 1 -13.0794 -7.63378 -9.48675 13.5218 45.5685 17.1144 1.0149 0.729668 1.09498
155 1 -11.0546 -12.7441 -10.7212 15.5465 -12.7441 -10.7212 -1.14658 0.112873 0.906646
5094 1 -8.72925 -10.8759 -7.26285 -8.72925 15.7252 -33.864 -1.58927 -1.70299 0.136433
14786 1 -9.76509 -10.2569 -7.31536 -9.76509 -36.8581 -7.31536 -0.924763 -0.772829 0.718682
15833 1 -11.7664 -9.12815 -12.2734 -11.7664 17.473 -12.2734 0.423583 0.667518 1.49709
7621 1 -11.2295 -10.4685 -11.6337 -11.2295 -10.4685 14.9675 1.3007 0.205587 -1.30266
15789 1 -11.1003 -10.5887 -10.2476 -11.1003 -37.1899 -36.8487 -0.57238 0.677863 -0.104305
7715 1 -10.5224 -9.55585 -12.1057 -10.5224 17.0453 41.0966 -0.505179 -1.08971 -0.422285
9607 1 -9.33993 -10.2152 -10.7294 17.2612 -36.8163 42.4728 -0.352033 1.35435 0.775834
13091 1 -7.63775 -9.21285 -10.7178 -34.2389 17.3883 -37.319 0.295148 0.18146 -0.0661319
13092 1 -8.58834 -9.145 -10.7866 -35.1895 17.4562 -37.3877 -0.655689 0.688181 -0.818056
7555 1 -9.38632 -10.9867 -11.3735 -9.38632 42.2156 41.8288 -1.62456 0.425783 0.445986
8434 1 -12.3506 -9.91116 -12.7096 -12.3506 16.69 -12.7096 0.984835 -1.47572 0.614815
936 1 -10.1216 -7.84365 -11.7452 -10.1216 45.3586 -11.7452 0.16131 1.38754 1.00851
14501 1 -11.6312 -7.67406 -10.6283 14.9699 -7.67406 15.9728 1.57559 -0.936028 1.55512
15166 1 -7.67802 -6.84175 -8.87661 18.9231 -60.044 17.7245 0.814987 -1.65158 -0.654281
9081 1 -11.784 -7.95925 -11.8741 -11.784 18.6419 -11.8741 -0.631614 1.18075 0.837759
15790 1 -10.6156 -10.026 -10.8047 -10.6156 -36.6272 -37.4058 -0.584978 -0.660776 0.0318096
7716 1 -9.8762 -8.88508 -11.7554 -9.8762 17.7161 41.4469 -0.478051 -0.117061 0.085525
4666 1 -8.72542 -8.73339 -11.7535 17.8757 17.8678 -11.7535 -0.858671 -2.51801 -0.0720708
1598 1 -12.407 -7.05956 -8.23223 40.7953 46.1427 -34.8334 1.2721 -0.741954 -0.969874
4936 1 -12.6236 -9.13334 -6.85661 -12.6236 17.4678 46.3457 0.170872 0.203069 0.227777
14710 1 -10.3065 -10.7108 -12.6661 16.2947 -37.312 13.9351 -0.964852 -1.00603 1.13879
602 1 -11.3643 -7.1594 -12.9452 68.4391 -7.1594 13.656 -0.972485 0.465297 -1.26343
15165 1 -7.04105 -7.48575 -8.85066 19.5601 -60.688 17.7505 -0.533768 0.477993 0.168662
7537 1 -8.76336 -7.59521 -10.3696 -8.76336 19.0059 42.8327 -0.764833 0.101347 0.984949
4028 1 -9.4074 -8.22787 -10.9082 -9.4074 -8.22787 15.6929 0.284742 -0.804653 0.514667
935 1 -10.6959 -7.1829 -12.0093 -10.6959 46.0194 -12.0093 1.21353 0.0385358 -0.353875
4665 1 -9.13709 -9.62714 -11.6415 17.4641 16.974 -11.6415 -0.428876 0.492036 -0.33499
2663 1 -7.79105 -8.46357 -7.36418 -7.79105 44.7387 19.237 0.434615 0.72772 -0.451073
1185 1 -9.91973 -7.36361 -7.41301 16.6814 -33.9648 -7.41301 0.386211 0.767636 1.23613
4163 1 -12.6701 -10.7145 -7.89765 -39.2712 15.8866 -7.89765 -3.1065 -0.30736 1.03799
7175 1 -6.97688 -7.43019 -11.4124 -6.97688 -34.0313 15.1888 -0.390112 0.473275 -1.73101
14222 1 -12.4671 -12.8324 -8.19092 14.1341 -39.4335 -8.19092 -0.915341 -0.199243 -0.296506
10784 1 -11.5139 -7.0362 -9.25427 -11.5139 19.5649 -89.0577 -1.08425 -0.401955 1.31659
15447 1 -10.502 -12.2364 -8.89584 16.0992 -12.2364 17.7053 -0.163674 0.195706 -1.119
9004 1 -12.387 -12.2873 -10.2998 14.2142 -12.2873 -10.2998 0.80239 -0.0325172 -0.179257
14578 1 -10.9746 -11.8846 -9.99809 15.6265 14.7165 -36.5992 -1.70354 1.56379 -1.05546
8523 1 -10.2508 -11.3309 -9.44844 -10.2508 -11.3309 17.1527 -0.704718 -0.942358 0.33994
11591 1 -6.85231 -13.0285 -9.82586 -33.4535 13.5727 16.7753 -1.17882 -0.783306 -1.33736
235 1 -9.11783 -12.2658 -10.6955 44.0845 -12.2658 15.9057 -0.0243053 -0.772088 0.799293
11005 1 -8.87719 -11.3262 -10.2835 17.724 15.2749 42.9188 -1.34916 0.283427 -0.168639
338 1 -9.57828 -12.686 -8.72585 43.624 -39.2871 -61.9281 -1.38048 -0.711326 1.16778
112 1 -11.4084 -10.0977 -12.8451 -64.6107 16.5035 13.7561 1.01242 -0.0188596 2.14866
10592 1 -12.5468 -12.8695 -13.0515 -12.5468 13.7316 13.5497 1.28763 0.578064 0.599429
11262 1 -11.888 -10.2015 -9.72872 14.7132 43.0008 -9.72872 -1.53058 0.84274 -0.17575
9003 1 -11.9287 -11.4669 -10.1296 14.6725 -11.4669 -10.1296 -2.3013 -0.0104053 -1.61882
6337 1 -10.3758 -11.0041 -10.831 16.2254 -37.6052 -10.831 0.162112 -0.83292 -0.0604716
13453 1 -9.09853 -10.5421 -9.50913 -9.09853 -10.5421 17.092 0.742059 -1.40482 -0.897128
11006 1 -7.98955 -11.4739 -10.6553 18.6116 15.1273 42.547 1.12586 0.363349 -0.255156
11261 1 -11.8606 -9.52832 -10.3459 14.7406 43.674 -10.3459 0.649877 2.50241 -0.245491
9857 1 -11.373 -11.4015 -9.04536 -11.373 41.8008 -9.04536 -0.0654795 -0.406194 1.00443
1097 1 -12.0481 -9.99543 -8.76513 -12.0481 -9.99543 44.4372 -0.365765 -0.130903 -0.698522
1098 1 -12.5587 -9.34154 -9.30896 -12.5587 -9.34154 43.8933 -1.018 -1.40863 0.685592
9858 1 -10.8684 -10.6338 -8.88394 -10.8684 42.5685 -8.88394 -1.7294 1.00525 0.709456
9608 1 -8.46545 -10.3738 -11.0693 18.1357 -36.9749 42.133 0.903536 1.18755 -1.3006
6206 1 -8.82728 -8.635 -9.83241 -35.4284 17.9661 16.7687 -0.0819332 0.753543 0.000497229
8669 1 -8.5279 -9.88709 -8.91367 18.0733 16.7141 44.2886 0.825103 0.210668 -0.516654
7590 1 -7.17671 -10.144 -10.7292 -60.379 43.0583 -37.3304 -0.511656 -0.778209 1.45269
1234 1 -7.67944 -8.59985 -9.80297 18.9217 -8.59985 -9.80297 -1.15344 0.111971 -0.759638
6205 1 -8.32029 -9.40043 -9.78057 -34.9214 17.2007 16.8206 1.25421 -0.35226 -0.937362
923 1 -12.2708 -9.82384 -11.5195 14.3303 16.7773 15.0816 -0.708458 -1.57634 0.40348
924 1 -11.4323 -9.512 -11.2247 15.1689 17.0892 15.3764 -0.938161 0.922881 1.14755
3727 1 -12.7972 -8.9818 -11.9967 40.4051 -35.5829 14.6045 0.447996 0.357742 0.0154684
3728 1 -12.2266 -8.60877 -11.2253 40.9757 -35.2099 15.3759 0.612475 0.35129 0.173983
3064 1 -10.2044 -8.71841 -9.51457 -10.2044 71.085 -9.51457 0.64972 -0.736441 -0.700004
6949 1 -11.8276 -8.59235 -9.4754 14.7736 -35.1935 17.1257 0.216139 1.44095 -2.2951
3063 1 -10.8344 -9.45844 -9.87032 -10.8344 70.345 -9.87032 0.102307 0.60604 -1.04398
4027 1 -9.60063 -9.16403 -10.7972 -9.60063 -9.16403 15.804 1.97713 -1.10574 2.90837
5143 1 -9.39922 -9.54892 -9.65779 -9.39922 -36.1501 16.9434 0.525305 1.39415 -1.01993
14802 1 -7.42893 -7.38638 -10.4361 19.1722 -7.38638 -10.4361 -1.70895 0.0147615 -0.825437
14801 1 -7.90988 -7.53842 -9.58939 18.6913 -7.53842 -9.58939 -0.549115 1.54001 -0.687139
6101 1 -12.7399 -7.45812 -13.4884 13.8612 19.143 13.1127 -0.219463 0.112469 -2.36988
9377 1 -12.5119 -10.9292 -9.03221 14.0893 -64.1315 17.5689 0.321765 0.146912 -0.870506
1192 1 -7.69542 -11.7854 -9.03449 45.5069 -11.7854 -9.03449 2.14288 1.84843 -1.34633
13684 1 -6.98862 -9.45679 -11.5608 -33.5898 17.1444 -11.5608 -0.741125 -0.354738 0.528332
12608 1 -11.3681 -8.71154 -10.5813 15.233 17.8896 16.0198 -0.800783 -0.393169 1.35856
11093 1 -9.25356 -7.04123 -11.4068 -9.25356 19.5599 -11.4068 -0.472526 1.49445 -0.67692
7538 1 -8.23067 -7.9019 -11.1365 -8.23067 18.6992 42.0657 -0.431799 -1.14331 1.3081
5959 1 -9.7814 -7.81226 -10.0147 -36.3825 -34.4134 -36.6159 0.507489 0.206214 -0.195563
5960 1 -10.075 -7.30647 -9.25506 -36.6761 -33.9076 -35.8562 0.457139 -0.286977 0.735212
156 1 -10.0656 -12.9353 -10.6204 16.5355 -12.9353 -10.6204 1.81081 -1.34786 -0.497888
12109 1 -13.3648 -12.0519 -10.7213 13.2364 14.5492 -10.7213 0.0264181 1.6693 -1.84882
7683 1 -7.73546 -10.9734 -7.93742 18.8657 15.6277 18.6637 -0.650018 0.895028 -0.742168
9934 1 -12.6213 -13.1286 -9.76133 13.9798 -13.1286 -9.76133 -0.129887 -1.04979 0.0633216
6171 1 -9.14016 -7.04189 -6.80745 44.0621 -7.04189 -33.4086 0.862048 -1.26078 -1.29624
8451 1 -11.6047 -10.9337 -8.10669 -64.807 15.6675 -34.7078 -0.386989 1.79727 -0.494705
5574 1 -10.4978 -8.36536 -12.5503 16.1034 18.2358 -12.5503 0.101041 1.06283 0.643669
10353 1 -8.58734 -7.76997 -7.22591 -61.7896 -7.76997 19.3752 -1.39719 1.87538 -1.48394
8524 1 -9.55186 -11.4163 -8.80743 -9.55186 -11.4163 17.7937 -2.13332 -0.207155 0.152578
1511 1 -10.9332 -6.80972 -8.23455 42.2691 -6.80972 18.3666 -0.0212808 1.0275 0.0906107
12568 1 -6.89527 -12.3786 -7.18367 46.307 14.2225 -7.18367 -0.0294534 -0.0459166 1.31706
13293 1 -12.3464 -12.3054 -7.26717 40.8559 -38.9065 -7.26717 1.81058 1.28919 0.171411
8452 1 -11.1794 -11.7722 -8.04795 -64.3817 14.8289 -34.6491 0.225706 -0.340564 -0.295174
13454 1 -8.2978 -10.5487 -9.96849 -8.2978 -10.5487 16.6327 0.498106 -0.30168 1.07928
7003 1 -7.952 -10.7473 -8.99782 -61.1543 -10.7473 -8.99782 -0.388795 -0.154282 -1.5778
7004 1 -7.01247 -10.8581 -9.02638 -60.2148 -10.8581 -9.02638 0.291491 -1.71682 0.514898
10962 1 -9.55756 -12.9516 -7.31337 -9.55756 13.6495 -7.31337 1.09831 -0.464539 -1.16867
12453 1 -10.8958 -9.99043 -7.94994 -10.8958 -63.1927 -34.5511 -0.773805 -0.579907 -0.818522
2242 1 -12.1353 -12.062 -9.25756 14.4659 14.5392 17.3436 0.67073 0.788169 0.913525
10086 1 -12.7434 -7.90637 -12.1658 13.8577 -7.90637 -12.1658 0.664104 -0.397053 -0.797675
12454 1 -10.8309 -10.8743 -7.5189 -10.8309 -64.0766 -34.12 0.0764867 0.0401138 1.00437
7058 1 -10.2545 -9.76428 -8.84312 -36.8556 -36.3654 -8.84312 0.295782 1.45258 0.652763
1186 1 -10.4203 -7.69281 -8.05217 16.1809 -34.294 -8.05217 -0.0264626 -0.694967 -0.372574
7057 1 -10.1182 -10.5015 -8.26307 -36.7193 -37.1026 -8.26307 -1.5587 -1.21898 1.41137
8670 1 -9.10583 -9.73267 -8.11879 17.4953 16.8685 45.0835 2.38525 -0.0807554 1.59412
696 1 -9.231 -8.42334 -7.7883 17.3701 18.1778 -7.7883 -1.06597 -0.00456834 -0.593111
12306 1 -7.54313 -9.57249 -8.18499 19.058 -9.57249 -8.18499 -0.719914 -1.05288 -0.242816
10342 1 -7.93993 -8.01414 -8.56031 18.6612 18.587 -8.56031 -1.41063 1.47281 -1.40833
8281 1 -11.7936 -10.2781 -7.31675 -38.3947 -36.8792 -7.31675 -0.102921 -0.239545 0.918176
7589 1 -6.90194 -10.2297 -9.83399 -60.1042 42.9726 -36.4351 0.643859 -0.438391 -0.546047
12305 1 -7.46979 -9.38842 -9.09757 19.1314 -9.38842 -9.09757 -0.348457 1.91557 0.769637
10061 1 -11.0924 -9.09514 -8.75132 15.5087 44.1071 17.8498 0.963426 0.128222 1.02728
2421 1 -12.9362 -8.44437 -8.87788 40.2661 -35.0455 -35.479 0.282834 0.0125537 -0.699823
2422 1 -12.0867 -8.0112 -8.64684 41.1156 -34.6124 -35.248 0.0674318 -0.869908 -0.84699
5144 1 -9.95923 -10.2173 -9.94498 -9.95923 -36.8185 16.6562 -0.475983 -1.75657 0.966015
695 1 -9.93463 -9.00011 -7.96889 16.6665 17.601 -7.96889 1.68745 1.34631 0.414984
10341 1 -8.59656 -7.41093 -8.21734 18.0046 19.1902 -8.21734 -0.16155 0.587335 -0.140266
2664 1 -8.26966 -8.86903 -7.99472 -8.26966 44.3333 18.6064 -0.717938 0.0682319 -1.0586
6950 1 -12.1273 -7.77492 -9.74939 14.4739 -34.3761 16.8518 -0.221902 -0.473832 -1.29639
2931 1 -6.90415 -8.70383 -7.95005 -6.90415 -61.9061 -34.5512 1.14789 -0.0947612 0.939901
14502 1 -12.0205 -7.1312 -11.3038 14.5807 -7.1312 15.2974 0.452663 0.806767 -2.75768
13880 1 -7.3501 -11.3756 -9.88764 -7.3501 -11.3756 -9.88764 1.46748 2.25171 -0.285224
13415 1 -10.9174 -7.62123 -7.11049 15.6838 18.9799 -60.3128 0.520407 0.92496 -1.19064
6365 1 -12.312 -13.023 -12.0469 14.2891 -39.6241 41.1554 1.24386 0.022481 -0.10653
12607 1 -10.6843 -8.0897 -10.7962 15.9168 18.5114 15.805 0.100123 -1.39725 -0.111661
12183 1 -7.6399 -9.40134 -12.6893 18.9612 -36.0025 13.9119 1.53443 0.187461 1.1491
11376 1 -9.34419 -8.03357 -8.69209 17.257 45.1687 -8.69209 -0.850703 0.12363 -0.868474
11375 1 -9.03607 -8.93923 -8.94228 17.5651 44.2631 -8.94228 -2.25968 -0.665306 -0.301819
6237 1 -10.9817 -7.84413 -8.89864 42.2206 18.757 44.3036 0.361171 -0.682983 -0.515505
14839 1 -9.80486 -6.67781 -8.37428 -9.80486 19.9233 -8.37428 -0.0422132 -1.40581 1.70137
9916 1 -11.2409 -12.6783 -8.3254 15.3602 -12.6783 -8.3254 -1.5601 -0.829759 1.63742
15067 1 -8.28642 -12.8797 -12.6655 -8.28642 40.3226 -12.6655 -0.00949786 -0.849564 -1.99911
10783 1 -10.851 -7.09604 -9.96885 -10.851 19.5051 -89.7723 0.549838 -0.0782107 1.3817
1885 1 -12.7005 -8.47397 -13.0674 -39.3017 -8.47397 -13.0674 0.490516 0.339484 1.12621
1191 1 -7.12575 -12.5691 -8.9462 46.0765 -12.5691 -8.9462 1.11816 -1.74552 -1.45503
24 1 -8.59206 -7.28968 -12.2564 -61.7944 -7.28968 14.3448 -0.612754 0.343192 0.464251
13879 1 -6.66674 -11.9882 -9.72154 -6.66674 -11.9882 -9.72154 -1.65642 0.261386 0.0881777
1701 1 -11.3481 -12.8875 -11.6907 -37.9493 13.7136 14.9104 -0.321658 -1.01568 -0.375469
3941 1 -12.4372 -12.9649 -11.0169 -12.4372 -12.9649 -11.0169 1.59506 -0.692695 -0.282875
8914 1 -6.78241 -13.3474 -12.5558 -6.78241 -66.5497 -12.5558 0.974021 -1.67439 -1.866
11124 1 -10.9189 -11.9464 -6.98858 -37.5201 -11.9464 19.6126 -0.881255 -0.27437 -0.853015
13294 1 -12.3447 -11.7231 -8.004 40.8576 -38.3243 -8.004 0.664433 -0.360989 0.784386
9915 1 -10.3667 -12.9111 -8.04113 16.2344 -12.9111 -8.04113 0.577486 0.129931 0.869544
2241 1 -11.3621 -12.6378 -9.38051 15.2391 13.9633 17.2206 -0.776493 -0.795565 1.43813
3970 1 -9.75156 -11.5317 -7.09203 16.8496 68.2717 19.5091 -0.432526 -0.63971 0.431434
2960 1 -8.85945 -11.7622 -7.95592 44.3428 41.4401 -7.95592 -0.128885 0.324671 -1.15504
3969 1 -9.99777 -11.9738 -7.94667 16.6034 67.8296 18.6545 -0.399601 0.750515 -1.10893
10878 1 -6.73698 -8.19769 -13.0201 19.8642 -34.7988 -13.0201 1.05109 0.0149468 1.55107
13416 1 -11.5138 -7.71806 -7.89445 15.0873 18.8831 -61.0967 0.364516 1.91676 0.603959
12962 1 -7.97157 -12.4568 -8.13466 18.6296 -12.4568 18.4665 -1.82914 -1.25998 0.00691245
92 1 -6.99217 -8.03543 -6.88559 19.609 -8.03543 19.7156 2.10499 -1.08218 0.622265
10030 1 -9.4263 -13.4162 -12.7013 -36.0274 13.1849 -12.7013 0.0624764 -0.288384 -0.819764
14785 1 -10.6288 -10.1947 -6.82182 -10.6288 -36.7958 -6.82182 0.174877 0.225282 -1.40422
2932 1 -7.05603 -8.53544 -8.8743 -7.05603 -61.7377 -35.4755 -0.478329 -1.75594 -0.63043
2959 1 -8.83571 -10.8323 -8.20303 44.3666 42.37 -8.20303 -2.42958 -1.15497 -0.111835
6238 1 -11.051 -8.01954 -9.78135 42.1513 18.5816 43.4209 -0.145582 -0.652587 1.47219
7684 1 -6.824 -10.5772 -7.99373 19.7771 16.0239 18.6074 0.249804 1.70948 2.16754
9572 1 -11.1506 -12.7914 -12.7589 -11.1506 40.4109 -12.7589 -1.92878 0.457399 -0.880986
10062 1 -10.9074 -8.73483 -7.89545 15.6938 44.4675 18.7057 -0.888603 -1.03906 1.09484
7983 1 -7.51402 -7.27187 -7.95155 -34.1152 -7.27187 -7.95155 2.06716 0.397337 1.21376
8862 1 -13.196 -8.55411 -9.9217 -13.196 -8.55411 43.2806 0.715236 0.0334636 0.304446
5974 1 -10.0939 -8.36038 -7.11092 -10.0939 -34.9615 19.4902 0.991907 -0.130881 -1.49556
854 1 -6.90744 -7.1772 -12.3979 -6.90744 19.4239 67.4056 0.357773 -0.105775 0.968343
10815 1 -12.9607 -6.88888 -12.6204 -39.5619 19.7123 -12.6204 0.340083 -1.15705 0.269466
8603 1 -6.59505 -9.25479 -12.8786 20.0061 -62.4571 -12.8786 0.644997 0.162472 -0.853745
13944 1 -7.74486 -9.58006 -7.01817 -7.74486 -9.58006 -7.01817 0.603917 -0.200197 1.33942
14881 1 -11.6189 -8.55941 -7.0823 41.5833 44.6429 -7.0823 0.46919 2.20971 0.815995
11714 1 -6.75746 -11.3987 -7.32245 -33.3586 15.2024 -7.32245 0.0138888 -1.37293 -0.177772
5375 1 -7.71901 -12.1197 -12.2207 18.8821 -38.7208 14.3804 -0.505474 0.782563 0.0105095
358 1 -6.80678 -11.24 -11.0048 -33.4079 15.3612 -11.0048 0.169337 0.391081 0.403489
11724 1 -6.71013 -9.42794 -7.27225 -6.71013 -9.42794 19.3289 0.120597 -0.815501 1.10116
13943 1 -7.38144 -10.4293 -7.15305 -7.38144 -10.4293 -7.15305 0.785882 1.2714 -0.390801
14221 1 -13.3793 -12.5583 -7.99461 13.2219 -39.1594 -7.99461 -0.600615 -0.704262 0.410186
5605 1 -10.0889 -7.17881 -10.8921 43.1134 19.4223 -10.8921 0.769454 -1.17689 0.547338
11094 1 -8.35147 -6.78755 -11.2396 -8.35147 19.8136 -11.2396 0.64148 -0.27338 -2.17935
4510 1 -12.5277 -6.9979 -10.458 40.6746 -33.599 -37.0591 -0.448221 -0.458247 -0.274828
3820 1 -8.23222 -12.9462 -10.7155 -8.23222 -12.9462 -10.7155 1.77169 -0.327143 -1.25291
14467 1 -13.1605 -11.2392 -9.78633 -39.7616 41.9631 16.8148 1.29245 -0.554274 -0.412247
11289 1 -12.719 -7.06863 -6.95523 40.4832 -60.2709 19.6459 0.00678216 -1.75926 0.72125
4838 1 -9.70585 -9.504 -6.58653 43.4964 17.0972 -6.58653 0.0342288 -0.802899 2.36264
4484 1 -6.76121 -7.94993 -9.7823 19.8399 18.6512 16.8188 0.0843887 0.57276 -0.0900417
15451 1 -6.70184 -12.3036 -12.5654 73.1016 -12.3036 14.0357 0.0481421 -0.810673 1.25043
6172 1 -8.22991 -6.79856 -6.84427 44.9724 -6.79856 -33.4454 -0.740647 -0.764021 0.124694
4935 1 -12.6962 -9.99766 -6.51782 -12.6962 16.6035 46.6845 -0.313263 0.388499 2.51148
5093 1 -8.65064 -9.95685 -6.90541 -8.65064 16.6443 -33.5066 -1.92134 1.05872 -0.875934
15068 1 -7.6096 -13.0229 -13.372 -7.6096 40.1794 -13.372 0.704689 -0.422689 -1.66479
3345 1 -8.19334 -11.0396 -13.1589 -61.3956 15.5616 13.4423 -0.889048 -0.164613 -0.169379
91 1 -7.07295 -7.92998 -5.96407 19.5282 -7.92998 20.6371 -1.76487 -0.197934 0.376025
14882 1 -11.8464 -8.82082 -6.16691 41.3559 44.3815 -6.16691 -1.11807 0.374396 -1.47787
3755 1 -10.6647 -13.173 -5.91803 -10.6647 66.6304 -32.5192 -0.265518 1.06348 2.53579
14547 1 -12.3146 -12.4362 -4.58423 -12.3146 -39.0374 -4.58423 0.157103 -0.609912 -0.136315
13282 1 -9.48828 -13.1451 -2.30887 43.714 13.456 -2.30887 1.50026 -0.9855 0.333936
7952 1 -9.55233 -11.9975 -4.91219 -9.55233 -11.9975 -58.1145 0.767575 -0.674908 1.41574
5458 1 -12.7991 -12.7937 -3.05291 -12.7991 -39.3949 -3.05291 1.15963 0.76791 -1.01057
8075 1 -9.38443 -10.3766 -5.34525 17.2167 42.8257 21.2559 -0.105657 0.534647 -1.12891
9424 1 -8.11656 -12.5557 -3.90703 -8.11656 14.0455 22.6941 0.458876 0.36897 -0.165672
4601 1 -8.87996 -12.7651 -4.67672 -8.87996 -12.7651 -31.2779 0.35398 -0.869563 0.504441
3471 1 -8.66127 -12.9235 -5.84166 -8.66127 40.2788 20.7595 1.6651 0.594951 -2.16272
5793 1 -12.0415 -13.3759 -1.51669 14.5596 39.8264 -54.719 1.96266 -1.10418 -0.259073
9029 1 -13.1969 -11.7795 -2.5817 40.0054 -11.7795 -2.5817 1.42726 0.111221 0.218988
11433 1 -10.3711 -10.5517 -5.90987 16.2301 16.0495 -5.90987 -0.106768 -0.724242 0.885582
14887 1 -12.1714 -10.8171 -6.11817 14.4297 -37.4183 -6.11817 0.442125 -0.328251 -0.545805
6754 1 -10.3655 -10.2938 -4.91591 16.2356 42.9085 -4.91591 -0.421248 -1.62793 1.75134
8386 1 -12.7621 -9.59894 -3.14164 -12.7621 -9.59894 -29.7428 0.174842 -0.0764728 1.07423
7674 1 -13.0988 -10.6229 -3.37334 -13.0988 -10.6229 23.2278 1.31754 0.205854 1.03401
2772 1 -9.34219 -11.6071 -5.94439 43.8601 14.9941 -5.94439 1.17288 0.875283 -0.954298
8076 1 -9.42357 -10.5758 -6.26859 17.1776 42.6265 20.3326 -1.42336 1.15063 -1.62312
4602 1 -9.76188 -13.2779 -4.8601 -9.76188 -13.2779 -31.4612 -0.354803 -1.71415 -0.365932
2295 1 -11.7535 -11.3947 -5.25002 68.0499 41.8076 -31.8512 1.22231 0.462882 -0.130636
9423 1 -8.3176 -11.9217 -3.23738 -8.3176 14.6794 23.3638 0.550452 -0.735348 0.966428
8895 1 -6.963 -12.5957 -4.54594 -33.5641 40.6066 -4.54594 -1.41826 -0.0937552 0.278351
5761 1 -12.7129 -13.0814 -3.95897 13.8882 40.1209 -3.95897 -1.13478 -1.69767 -1.27523
11801 1 -7.41605 -13.3361 -5.88185 -7.41605 39.8662 47.3204 1.9314 -0.336787 0.652789
8385 1 -13.3598 -8.96594 -2.73001 -13.3598 -8.96594 -29.3312 -1.22163 1.48443 1.13991
8426 1 -10.0615 -7.55607 -6.38874 -36.6627 -34.1572 -32.9899 -0.149495 -0.75218 0.093986
10989 1 -7.61572 -7.2299 -0.881866 18.9854 -7.2299 -27.483 -0.685713 -0.314605 0.0426985
6753 1 -10.9306 -11.0818 -4.63814 15.6705 42.1205 -4.63814 -0.628115 0.141943 -0.0655938
11055 1 -11.225 -6.87772 -6.28234 15.3762 19.7234 -6.28234 -2.808 -0.305244 -0.146458
9507 1 -8.26565 -11.6819 -4.37005 -34.8668 41.5204 48.8322 -1.22474 -0.00737919 -0.764254
14548 1 -12.3695 -13.0847 -5.2723 -12.3695 -39.6858 -5.2723 -0.798533 0.361243 0.528123
12115 1 -7.05088 -12.0228 -5.37031 -7.05088 -38.6239 -5.37031 -0.589475 0.373689 -0.88167
9359 1 -6.7145 -8.94093 -6.36523 -6.7145 17.6602 20.2359 1.84155 1.01406 -1.99144
2204 1 -6.87353 -8.84372 -3.16159 -6.87353 17.7574 23.4396 -1.74779 1.03384 0.609467
3756 1 -11.1597 -13.5757 -5.20163 -11.1597 66.2277 -31.8028 -0.434554 -2.22445 0.397655
5717 1 -11.1544 -8.14412 -3.28539 -64.3567 18.457 23.3158 0.733314 -1.06719 0.00613302
5718 1 -10.3956 -8.10966 -3.82557 -63.5979 18.4915 22.7756 0.873497 -0.547235 -0.186951
10935 1 -11.3487 -7.96903 -4.60761 -11.3487 18.6321 -31.2088 1.41752 -0.415537 1.30319
1019 1 -12.491 -8.97525 -2.11188 -39.0922 -35.5764 24.4893 -0.479159 -0.858153 0.685816
3443 1 -9.93345 -9.55575 -5.44863 -9.93345 -36.1569 -58.6509 -1.09019 -0.467187 -1.00423
14032 1 -11.5241 -10.1319 -4.64909 15.077 16.4693 -4.64909 -0.433178 -1.26207 0.124463
11434 1 -10.9518 -11.293 -6.13732 15.6494 15.3081 -6.13732 1.67803 -0.960712 -0.803962
3142 1 -13.1464 -8.13112 -4.69775 -39.7475 -8.13112 -4.69775 0.533013 -1.84257 -0.333322
14724 1 -7.88761 -10.9481 -6.21222 -7.88761 42.2542 -6.21222 1.21879 -0.938316 -0.633749
3444 1 -10.8573 -9.38455 -5.67852 -10.8573 -35.9857 -58.8808 0.201813 0.360218 -2.35141
12930 1 -10.4598 -12.3238 -5.27448 -37.0609 14.2774 -31.8756 1.0815 0.253835 0.796347
3313 1 -7.94818 -12.9354 -4.98429 18.653 -12.9354 21.6169 -0.978621 -0.509538 -0.321492
11415 1 -12.6319 -7.46739 -5.48543 40.5704 -34.0685 -5.48543 -1.65347 -0.747415 -0.445019
14720 1 -8.99725 -9.15973 -0.433752 -35.5984 44.0426 -53.636 0.464531 -0.778127 0.0178865
8896 1 -7.30267 -11.9469 -3.87366 -33.9038 41.2554 -3.87366 -1.22557 1.09212 -0.14236
8318 1 -12.202 -6.61566 -1.10694 -65.4043 46.5866 -1.10694 0.856162 -0.273861 0.522215
1789 1 -12.6556 -8.04698 -6.48168 13.9456 18.5542 -6.48168 0.458918 0.646602 -0.771129
3078 1 -8.67939 -9.15416 -6.39192 17.9218 17.447 -6.39192 2.6886 0.831783 -1.53189
10193 1 -8.01548 -7.52361 -5.81493 18.5857 98.881 20.7862 -0.691613 -0.374653 0.389721
13247 1 -6.77761 -12.1715 -2.01849 -6.77761 -12.1715 24.5827 -1.49297 0.355644 -0.931763
10920 1 -8.87017 -7.29532 -1.51593 17.731 19.3058 -54.7182 -1.2927 -0.218815 0.685034
12929 1 -9.63082 -12.5819 -5.7441 -36.232 14.0192 -32.3452 1.86671 -0.896965 -0.588795
12964 1 -7.99272 -8.40922 -0.388731 18.6084 -35.0104 -0.388731 0.0514742 0.403862 2.14007
7609 1 -10.6687 -12.8229 -4.34559 -37.2699 -12.8229 -4.34559 -0.113149 0.568874 0.667253
3752 1 -11.82 -12.8083 -3.43527 14.7812 -12.8083 -3.43527 -1.3538 0.274559 -0.0718819
7951 1 -9.78381 -12.19 -4.02008 -9.78381 -12.19 -57.2224 -0.180222 0.139438 0.308681
10157 1 -11.8091 -11.8971 -6.3113 41.3932 14.7041 -59.5136 -0.939806 -0.0528697 1.83219
2047 1 -13.3791 -9.91835 -4.13371 -13.3791 -9.91835 -30.7349 -0.685593 -0.660689 0.847784
10689 1 -12.756 -7.25377 -2.24332 40.4463 45.9485 -2.24332 -0.453415 -0.477193 1.09294
69 1 -11.5055 -12.4723 -5.44662 -11.5055 14.1289 21.1545 2.16035 -0.397978 -1.52245
70 1 -11.7183 -12.9938 -6.27229 -11.7183 13.6073 20.3289 0.639474 -0.399293 -0.658516
7610 1 -11.1384 -11.9967 -4.3421 -37.7396 -11.9967 -4.3421 0.617847 0.938583 1.14618
8584 1 -13.2516 -10.8395 -5.48781 13.3495 -37.4407 -32.089 -0.826917 1.44344 -0.941679
6229 1 -10.3884 -13.2056 -2.81515 -10.3884 13.3956 50.3871 1.54967 1.70313 -0.715707
2842 1 -10.1004 -11.2291 -5.23858 16.5007 15.372 -5.23858 -1.49741 -0.681201 -2.49448
11842 1 -8.54214 -9.62792 -4.4331 18.059 -9.62792 -4.4331 0.568278 -0.458786 -0.754316
12528 1 -7.84877 -7.4997 0.151164 18.7524 -7.4997 -26.45 -1.05659 1.05278 -0.331119
8578 1 -9.31897 -6.58814 -5.77815 -9.31897 20.013 47.4241 0.420135 1.40902 -0.0720745
2844 1 -7.82622 -10.6891 -5.22577 -7.82622 -37.2902 47.9765 1.64489 0.45002 0.271431
10119 1 -11.5042 -9.79145 -3.46467 15.097 -62.9937 -3.46467 -1.40805 -1.28128 0.840918
4264 1 -12.2907 -8.65922 -5.14889 14.3104 17.9419 21.4523 2.30716 -1.33224 -0.436381
2841 1 -9.91648 -10.9824 -4.35481 16.6847 15.6187 -4.35481 1.29007 0.544411 -0.0956077
808 1 -9.51632 -9.29815 -3.60849 43.686 43.9041 49.5938 0.686731 0.143038 0.870107
14308 1 -13.3272 -6.69958 -5.39478 -13.3272 -6.69958 -5.39478 -0.60703 0.902053 -0.0725799
9508 1 -8.7648 -11.2417 -5.12476 -35.366 41.9606 48.0775 -1.40755 -0.484298 0.484246
12190 1 -9.20513 -8.48652 -3.16379 -9.20513 44.7158 -3.16379 -0.344789 1.11408 -1.15201
6262 1 -13.2706 -7.79113 -1.29241 -13.2706 -7.79113 51.9099 -2.08974 0.931979 0.425579