ITEM: TIMESTEP
30000
ITEM: NUMBER OF ATOMS
16000
ITEM: BOX BOUNDS pp pp pp
-1.3300573168565002e+01 1.3300573168565002e+01
-1.3300573168565002e+01 1.3300573168565002e+01
-1.3300573168565002e+01 1.3300573168565002e+01
ITEM: ATOMS id type x y z xu yu zu vx vy vz
13593 1 -9.36514 -12.1517 -12.5079 -9.36514 14.4494 -39.1091 0.728008 -0.0410917 -1.00419
841 1 -12.3533 -6.62877 -9.70525 14.2478 -6.62877 -9.70525 0.123092 0.734942 1.28746
8875 1 -13.282 -11.9178 -9.93529 13.3192 -38.5189 16.6659 0.439762 -0.228038 -0.83951
15062 1 -12.7585 -11.0332 -8.92964 13.8426 15.568 17.6715 0.525406 1.48147 -1.7883
1048 1 -12.5465 -12.8462 -8.54114 -12.5465 -39.4473 -35.1423 0.0026291 -1.59109 -0.870513
8008 1 -8.27829 -12.6492 -11.7043 18.3229 13.952 14.8969 -0.173913 -0.19235 -0.930888
10029 1 -10.7151 -12.6862 -11.0783 -37.3162 13.9149 -11.0783 1.17404 0.976383 2.22697
8524 1 -12.4795 -11.6237 -8.19005 -12.4795 -11.6237 18.4111 -2.16405 0.769973 0.231829
8007 1 -9.18709 -12.4121 -11.4163 17.4141 14.189 15.1849 -0.52845 0.22847 -0.111686
387 1 -7.77367 -7.67147 -12.0752 -7.77367 -7.67147 14.5259 -0.788904 -0.921307 1.08323
13826 1 -8.42311 -12.3316 -12.6973 -35.0243 40.8707 -39.2984 -0.328146 -0.8031 -1.56978
10030 1 -10.8331 -12.6557 -12.0116 -37.4343 13.9455 -12.0116 -0.655934 -0.82313 -0.0383867
2170 1 -12.0656 -11.0883 -12.0566 -12.0656 -37.6894 14.5446 -0.517981 0.575419 1.45938
15159 1 -11.6417 -12.1292 -11.3879 41.5606 -12.1292 -11.3879 0.508211 0.0531364 -0.579705
155 1 -11.4106 -11.0648 -11.2902 15.1905 -11.0648 -11.2902 -1.44472 -2.01573 0.261144
9310 1 -12.2514 -9.17036 -12.5968 14.3497 44.0319 -39.198 -1.39143 -1.57398 -0.199379
1684 1 -10.8897 -11.3658 -12.6275 42.3126 -11.3658 13.9736 -0.760166 -0.375674 -0.596845
3363 1 -9.90052 -11.164 -12.6839 -9.90052 42.0383 13.9172 -0.270217 -0.56362 -0.444298
4049 1 -9.25401 -11.3203 -11.8391 -35.8552 -11.3203 67.9643 -0.848915 -0.693038 -0.0357102
15067 1 -8.09467 -11.3974 -13.0112 -8.09467 41.8049 -13.0112 1.49573 0.386106 -0.956351
14578 1 -10.2385 -10.4016 -12.0049 16.3627 16.1996 -38.606 0.799275 0.240526 1.4053
15711 1 -12.7525 -8.10867 -12.3613 13.8487 18.4925 14.2398 -0.065356 -0.801323 -1.20932
14577 1 -11.0378 -10.0177 -12.0104 15.5633 16.5835 -38.6116 -1.14183 -0.631097 0.914038
9309 1 -12.7445 -9.99095 -12.4639 13.8566 43.2113 -39.065 -0.598824 2.03221 -1.28265
463 1 -10.1003 -6.6926 -12.8548 16.5009 19.9085 -39.456 0.378623 1.37904 -0.360584
12183 1 -9.48108 -8.5982 -12.1752 17.1201 -35.1993 14.4259 -0.344526 0.400896 -1.1938
278 1 -13.0243 -7.90798 -9.51915 13.5769 -7.90798 -9.51915 0.527161 -1.27448 0.790318
12945 1 -8.16511 -9.39133 -10.9118 18.436 43.811 -10.9118 1.36047 -0.365652 -1.32945
12946 1 -7.62202 -9.89859 -10.2948 18.9791 43.3037 -10.2948 0.832448 1.45309 0.0844241
11908 1 -13.2526 -10.6572 -10.8307 -13.2526 15.944 15.7705 -0.659737 -2.41688 -1.3002
7621 1 -8.82363 -10.8289 -7.54358 -8.82363 -10.8289 19.0576 -0.331055 0.749011 -0.167298
8075 1 -9.6302 -13.1204 -7.50616 16.971 40.0819 19.095 0.588301 -0.755641 0.0178718
8347 1 -10.4999 -8.97752 -11.9928 42.7024 17.6236 -11.9928 0.618719 0.493969 -0.955266
4666 1 -11.4068 -8.26855 -12.76 15.1944 18.3326 -12.76 -0.137672 0.683468 1.4359
4665 1 -11.7808 -8.56998 -11.9239 14.8203 18.0312 -11.9239 -0.307267 -0.792261 0.0759413
4554 1 -7.33848 -12.6937 -11.523 -33.9396 -12.6937 -11.523 -0.409063 0.0828993 1.15929
9271 1 -12.5295 -12.8939 -9.68174 -65.7318 -12.8939 16.9194 -0.869815 -0.927564 -0.682593
2145 1 -9.5766 -9.50955 -12.6562 -9.5766 -9.50955 13.9449 1.23174 -0.111356 1.51298
13683 1 -7.38028 -9.08718 -11.6462 -33.9814 17.514 -11.6462 0.644081 -1.35249 0.47285
853 1 -7.16529 -6.78131 -11.4447 -7.16529 19.8198 68.3587 0.365228 0.696578 -0.596351
13684 1 -8.2334 -8.66048 -11.5126 -34.8346 17.9407 -11.5126 -0.0810098 -0.0687748 -1.79172
15692 1 -7.71644 -8.97428 -12.5673 45.4859 17.6269 -92.3708 0.493326 1.11841 1.89613
7057 1 -7.84251 -11.1232 -7.21692 -34.4437 -37.7243 -7.21692 0.793663 0.682802 0.539698
11027 1 -13.3205 -10.6189 -11.9451 -13.3205 -10.6189 -38.5462 -0.51992 -1.28988 0.553428
277 1 -12.2563 -8.41242 -9.48563 14.3448 -8.41242 -9.48563 -0.863505 1.43364 -0.806432
3441 1 -11.6598 -10.7329 -12.8419 14.9413 -37.334 13.7592 1.04112 -0.36175 -0.993744
13959 1 -12.1779 -12.8455 -12.9209 14.4232 -12.8455 13.6802 0.314309 1.16226 -1.77201
1250 1 -10.9332 -8.08396 -11.5522 42.2691 -34.6851 -11.5522 1.12014 -0.380209 -0.328714
15691 1 -8.46315 -9.49582 -12.952 44.7391 17.1053 -92.7554 1.42487 0.108306 -1.78167
7555 1 -7.39986 -8.05276 -11.1542 -7.39986 45.1495 42.0481 1.1543 -0.849872 0.818833
1249 1 -11.8529 -7.76727 -11.3183 41.3494 -34.3684 -11.3183 -1.17022 1.50299 0.151646
13960 1 -11.7868 -12.015 -12.6008 14.8143 -12.015 14.0004 -0.507571 0.312008 1.46536
337 1 -11.0627 -12.3354 -8.27962 42.1396 -38.9366 -61.4819 0.516669 -0.38809 1.68322
1683 1 -10.5663 -11.3921 -11.758 42.636 -11.3921 14.8431 -1.35776 -0.708832 1.67393
12110 1 -12.5635 -10.2242 -10.1774 14.0377 16.3769 -10.1774 -1.19714 -1.46557 0.889215
1784 1 -12.9265 -6.88457 -12.6421 -12.9265 19.7166 -39.2433 -1.464 2.0202 0.113387
2556 1 -8.21931 -9.53185 -7.74633 -8.21931 -9.53185 72.0571 0.340313 -0.214103 1.49658
15160 1 -12.5531 -12.0274 -11.6115 40.6492 -12.0274 -11.6115 3.41687 0.715293 -0.616745
11312 1 -11.5304 -12.6843 -10.4065 -11.5304 67.1192 16.1946 1.07289 1.35924 1.091
8452 1 -10.3323 -11.7484 -10.7263 -63.5346 14.8528 -37.3274 0.64388 -0.991192 0.887121
7597 1 -8.11472 -9.87451 -12.0185 -34.7159 -36.4757 -38.6197 1.86985 -1.09117 0.869387
8669 1 -6.84637 -10.7161 -7.29774 19.7548 15.8851 45.9046 1.80659 -0.336458 -2.90516
5094 1 -8.56995 -9.76001 -6.66721 -8.56995 16.8411 -33.2684 -0.225291 -1.56125 0.382885
13825 1 -7.67666 -11.9018 -12.1582 -34.2778 41.3005 -38.7594 -1.10706 -2.50683 0.21599
10860 1 -7.24849 -11.5893 -10.9312 -7.24849 15.0119 15.67 -0.0799181 -0.264539 -0.102862
3727 1 -12.0169 -10.0581 -11.7731 41.1854 -36.6592 14.8281 0.504328 0.999184 2.81341
156 1 -12.1877 -11.1372 -10.7656 14.4135 -11.1372 -10.7656 -0.551073 -0.24067 -1.08931
11311 1 -11.2299 -11.778 -10.1942 -11.2299 68.0254 16.407 0.641062 -0.703598 -1.34249
8451 1 -9.88339 -12.5551 -10.4312 -63.0857 14.0461 -37.0323 -3.1441 0.493905 2.28209
7715 1 -9.22126 -9.40324 -11.3996 -9.22126 17.1979 41.8026 0.234433 -1.46856 -1.28228
4050 1 -8.48209 -11.5768 -11.4901 -35.0832 -11.5768 68.3133 -0.0969867 -1.35104 -1.02607
8433 1 -9.42478 -10.7134 -10.0779 -9.42478 15.8877 -10.0779 -1.52284 -0.8509 1.74654
4257 1 -9.02966 -12.8704 -9.45934 -9.02966 66.9331 -36.0605 1.00383 0.0990807 0.182042
4895 1 -7.69521 -10.7954 -11.6752 18.9059 -10.7954 14.926 -1.19101 0.994309 -0.157693
3053 1 -7.00382 -11.4076 -12.9591 72.7996 15.1936 -39.5602 -1.97213 -0.390752 0.172859
3728 1 -11.7668 -9.5111 -11.0151 41.4355 -36.1122 15.586 -0.0466967 1.78708 0.0384766
15068 1 -8.235 -10.4704 -12.8923 -8.235 42.7319 -12.8923 -1.39059 0.5236 1.73125
7716 1 -9.52413 -10.2493 -11.2401 -9.52413 16.3519 41.9622 0.740462 1.10927 1.07384
5144 1 -8.65497 -9.74772 -8.95182 -8.65497 -36.3489 17.6493 1.69681 0.29832 0.848067
5143 1 -9.12481 -10.5778 -8.97796 -9.12481 -37.1789 17.6232 0.773977 0.334007 -0.0900351
11746 1 -10.6989 -9.76429 -11.1037 15.9022 -9.76429 15.4975 -0.381456 0.0898347 0.651606
7003 1 -7.92336 -10.613 -9.23538 -61.1257 -10.613 -9.23538 1.01459 -0.790621 -0.171781
4896 1 -8.4668 -10.5658 -11.1842 18.1343 -10.5658 15.417 0.650844 -1.17056 -0.66376
11220 1 -12.8921 -9.63119 -10.9322 -12.8921 -9.63119 -10.9322 1.28999 -0.225801 0.591879
695 1 -8.14482 -8.32399 -7.79478 18.4563 18.2772 -7.79478 0.337612 0.142614 0.86473
2146 1 -9.04583 -10.1886 -12.1813 -9.04583 -10.1886 14.4198 1.99013 1.63613 1.76627
1511 1 -8.82724 -7.59174 -11.9706 44.3751 -7.59174 14.6306 -0.0946178 0.460928 0.161616
7004 1 -7.48612 -9.83314 -8.81698 -60.6884 -9.83314 -8.81698 0.465368 -0.587948 1.4857
1512 1 -9.06761 -8.18442 -11.3303 44.1347 -8.18442 15.2708 1.31635 -1.7273 -0.773645
7390 1 -7.8281 -8.99186 -9.70682 -34.4292 17.6093 -9.70682 -0.851497 1.49815 1.07515
388 1 -6.95338 -8.14998 -12.0529 -6.95338 -8.14998 14.5483 0.928521 -1.13287 0.431007
4832 1 -8.26685 -13.2334 -8.1284 18.3343 13.3677 -61.3307 1.40716 -0.451034 1.1044
2107 1 -12.8955 -8.71741 -11.5053 13.7057 -35.3186 -38.1064 0.0223427 -0.675872 -1.16019
2919 1 -10.121 -7.56015 -12.1539 -36.7221 -7.56015 14.4472 0.224832 1.04571 -1.04752
2920 1 -9.91449 -7.62269 -11.2176 -36.5156 -7.62269 15.3835 0.739085 -0.00353179 -0.282051
4356 1 -9.59052 -7.14707 -6.62464 43.6118 19.4541 -6.62464 1.20978 -2.20394 0.767728
11907 1 -13.0803 -11.5887 -10.8683 -13.0803 15.0125 15.7328 0.554194 -0.9829 -0.872741
8311 1 -9.72277 -6.74373 -7.69191 43.4795 -59.946 -34.2931 1.6019 0.13587 0.899711
1286 1 -12.2399 -12.8832 -11.2136 40.9624 -39.4843 15.3876 -0.976575 -0.35412 -0.782525
13294 1 -10.9852 -12.6813 -9.36123 42.2171 -39.2824 -9.36123 0.0710216 0.482093 -0.308482
338 1 -11.8348 -12.5143 -7.74602 41.3675 -39.1155 -60.9483 0.417199 0.0500376 -0.59763
11467 1 -12.951 -12.9215 -12.2201 -39.5522 40.2807 14.3811 -2.21107 -0.270362 -1.44097
2169 1 -12.8287 -11.4672 -12.504 -12.8287 -38.0684 14.0972 1.86026 1.39062 -0.97472
14785 1 -12.465 -12.0865 -6.93702 -12.465 -38.6876 -6.93702 0.605646 1.6459 1.3717
12961 1 -8.60017 -13.0969 -7.05777 18.001 -13.0969 19.5434 1.47105 1.32812 0.0411237
10062 1 -12.6081 -10.6927 -6.85095 13.993 42.5096 19.7502 1.46929 -2.76053 0.136516
8538 1 -10.9206 -12.9806 -13.1927 -37.5217 -66.1829 40.0096 0.59076 -1.40644 0.246611
7622 1 -8.26461 -10.6736 -8.29329 -8.26461 -10.6736 18.3079 2.25076 0.0981913 0.167044
3313 1 -10.7769 -10.839 -9.84775 15.8243 -10.839 16.7534 0.574908 0.452201 0.0553239
3314 1 -10.374 -10.7109 -10.6174 16.2272 -10.7109 15.9838 -0.190967 0.528305 1.14399
15834 1 -11.5839 -10.2577 -10.081 -11.5839 16.3435 -10.081 0.938515 -0.208111 -0.251631
8282 1 -11.6238 -12.9723 -6.73942 -38.225 -39.5735 -6.73942 -1.60222 -0.704788 0.460419
1098 1 -9.99039 -11.6828 -9.59201 -9.99039 -11.6828 43.6103 -0.648495 0.43995 0.18655
1097 1 -9.72234 -12.0887 -8.76228 -9.72234 -12.0887 44.44 -0.52486 -1.42428 1.25484
4258 1 -8.80723 -11.973 -9.76819 -8.80723 67.8305 -36.3693 1.38977 -0.882222 -1.00461
12615 1 -8.10437 -12.0079 -10.5005 18.4968 14.5933 -37.1016 -0.363624 -0.908504 -0.750207
5886 1 -8.08197 -10.9785 -10.2342 18.5192 15.6226 16.367 -0.150222 0.27253 -0.111383
8434 1 -9.32245 -11.49 -10.595 -9.32245 15.1111 -10.595 1.20211 1.08029 0.705411
1186 1 -10.2692 -7.97202 -7.54271 16.332 -34.5732 -7.54271 1.24158 -0.548365 0.859021
15833 1 -11.8673 -10.995 -9.50965 -11.8673 15.6062 -9.50965 -2.85645 -0.20512 -1.37951
5525 1 -12.0056 -10.188 -8.8039 -12.0056 -36.7891 -8.8039 -1.12143 0.672576 -0.150179
11745 1 -10.5569 -9.80167 -10.115 16.0442 -9.80167 16.4861 0.199847 -1.27879 -0.116252
10027 1 -9.67641 -9.47134 -10.5623 16.9247 -9.47134 -10.5623 0.719278 0.539033 0.764519
10028 1 -9.97324 -8.66595 -11.0949 16.6279 -8.66595 -11.0949 -1.01465 1.79161 0.625664
5574 1 -10.4666 -10.5478 -8.79645 16.1346 16.0534 -8.79645 1.02783 1.01836 0.169675
4483 1 -7.89109 -8.8535 -8.70546 18.7101 17.7476 17.8957 0.384206 0.0909229 -0.97951
3541 1 -11.1616 -7.30549 -12.1317 -11.1616 -7.30549 67.6717 -0.522307 -1.1679 -0.0104187
1539 1 -8.08914 -7.16059 -9.64725 -34.6903 19.4406 43.555 -1.58223 0.0295794 -1.66561
4484 1 -7.07648 -8.2619 -8.59625 19.5247 18.3392 18.0049 -0.150094 1.31393 -0.38572
3542 1 -11.93 -7.39709 -12.6795 -11.93 -7.39709 67.1239 -0.0843493 -0.871411 1.20378
9915 1 -9.94973 -13.1449 -8.84667 16.6514 -13.1449 -8.84667 -0.0664036 -0.459234 -0.277693
5526 1 -12.9237 -10.0016 -8.8093 -12.9237 -36.6027 -8.8093 -1.73659 1.2185 0.278399
12453 1 -11.9071 -8.92597 -8.50738 -11.9071 -62.1283 -35.1085 0.776223 0.340066 1.21964
6238 1 -10.7162 -8.91847 -9.6632 42.4861 17.6827 43.5391 0.051112 0.207437 0.19735
15789 1 -11.6167 -9.26946 -10.0208 -11.6167 -35.8706 -36.6219 1.23187 -0.410794 -1.69731
15790 1 -11.0657 -8.85347 -10.7332 -11.0657 -35.4546 -37.3344 -1.27239 -1.42116 0.847975
9608 1 -8.90734 -8.90666 -10.0545 17.6938 -35.5078 43.1478 0.439226 1.05553 -0.422481
14438 1 -8.74281 -7.00737 -8.83268 71.0606 -7.00737 17.7685 0.46644 0.171693 -2.6893
696 1 -8.8198 -8.75575 -7.17698 17.7813 17.8454 -7.17698 0.226292 -0.396883 0.0553029
842 1 -11.941 -7.47701 -9.50108 14.6602 -7.47701 -9.50108 0.267489 0.107541 -1.26053
2108 1 -12.5863 -8.76575 -10.561 14.0148 -35.3669 -37.1622 -0.85151 -1.02933 1.51906
6618 1 -10.0657 -13.0433 -12.486 69.7377 13.5579 40.7163 1.56653 0.854746 -0.222835
6827 1 -11.0939 -8.04261 -9.47234 15.5072 45.1597 17.1288 -1.68241 -1.37286 -1.20189
7913 1 -10.8969 -6.99013 -9.79345 -10.8969 -60.1924 16.8077 0.556912 1.51087 -0.316998
6237 1 -9.91575 -8.37773 -9.9946 43.2865 18.2234 43.2077 0.555113 0.33422 -0.471038
13859 1 -7.32039 -7.28955 -8.93344 19.2808 -7.28955 -62.1357 0.0512647 -0.168535 -0.0236288
1540 1 -8.08744 -7.93993 -9.07955 -34.6886 18.6612 44.1227 -1.56288 -1.84516 -1.75485
13860 1 -6.92586 -7.95591 -9.60608 19.6753 -7.95591 -62.8084 -0.72376 -0.897017 0.192317
7389 1 -6.81249 -9.01381 -9.65209 -33.4136 17.5873 -9.65209 -0.380228 -1.58929 -0.567259
15774 1 -6.69103 -13.1296 -9.50584 19.9101 -39.7308 17.0953 2.11633 0.652664 -0.388405
2636 1 -8.02932 -13.1891 -10.7803 45.173 40.0132 15.8208 -0.585986 0.713768 -0.332133
2295 1 -11.6937 -11.4347 -7.23327 68.1098 41.7676 -33.8344 1.62533 -0.401734 0.398805
15451 1 -7.22682 -12.5755 -13.0129 72.5766 -12.5755 13.5883 -0.601779 2.15499 -0.548078
5605 1 -12.0597 -6.95299 -7.9014 41.1426 19.6482 -7.9014 0.188945 -1.06452 -0.633832
7598 1 -7.20747 -10.0531 -12.2844 -33.8086 -36.6542 -38.8855 0.554933 0.354039 -0.415417
235 1 -7.92145 -11.8325 -8.35151 45.2808 -11.8325 18.2496 -0.547528 0.536256 0.895593
236 1 -8.08425 -12.4309 -9.02356 45.118 -12.4309 17.5776 -0.669281 -1.18825 0.908397
12616 1 -7.52314 -12.6178 -10.0197 19.078 13.9834 -36.6209 1.08971 0.204029 -0.939694
8076 1 -9.01621 -12.4462 -7.97913 17.5849 40.7561 18.622 -0.123631 -0.175811 -1.14933
9373 1 -7.20804 -13.1282 -7.44583 -7.20804 13.473 19.1553 -1.21308 0.30836 -0.606088
14170 1 -12.5786 -8.57663 -7.42717 14.0226 -8.57663 -34.0283 -1.14076 0.346947 -2.91371
8523 1 -12.7178 -10.7238 -7.90575 -12.7178 -10.7238 18.6954 1.31158 -0.889161 -0.233707
13293 1 -11.8463 -12.2398 -9.26293 41.356 -38.841 -9.26293 1.34166 -0.59279 1.8605
2296 1 -10.8523 -11.3571 -7.79009 68.9511 41.8452 -34.3912 -0.179617 -0.185887 -1.36713
14468 1 -10.6599 -9.85347 -7.128 -37.2611 43.3488 19.4731 -1.13234 -1.24614 -1.56247
9279 1 -9.69145 -9.63581 -9.2472 -9.69145 16.9653 -9.2472 0.0592829 0.581587 0.262772
14467 1 -10.2733 -10.552 -7.75089 -36.8744 42.6503 18.8503 1.26369 -0.252468 2.05335
9363 1 -6.71167 -11.8906 -9.63074 19.8895 -11.8906 -9.63074 0.275322 1.59083 0.398481
9374 1 -7.31594 -12.7103 -8.28432 -7.31594 13.8908 18.3168 0.994093 0.871711 0.403516
5885 1 -8.46272 -10.1184 -9.98347 18.1384 16.4828 16.6177 -0.537292 0.647963 -0.447139
12184 1 -8.57352 -8.42898 -12.4292 18.0276 -35.0301 14.1719 -1.12267 1.9053 -0.224526
9003 1 -10.8304 -11.5571 -8.871 15.7707 -11.5571 -8.871 -0.825939 1.13315 0.638168
9004 1 -11.5725 -11.1132 -8.54886 15.0286 -11.1132 -8.54886 1.06225 -0.557137 0.365911
9280 1 -10.0905 -9.63091 -8.35173 -10.0905 16.9702 -8.35173 -0.128587 1.78453 -0.260559
14709 1 -9.2621 -8.97116 -8.46408 17.339 -35.5723 18.1371 -0.229387 -1.35824 -0.820241
9364 1 -7.51882 -11.4747 -9.53781 19.0823 -11.4747 -9.53781 1.00571 -1.56425 -1.6614
9858 1 -9.59436 -11.2158 -8.32984 -9.59436 41.9865 -8.32984 -1.21332 0.105457 0.628295
8348 1 -10.3773 -8.72874 -12.865 42.825 17.8724 -12.865 -0.330664 0.684136 1.45667
6842 1 -10.1632 -6.80262 -10.5954 -36.7643 -6.80262 -10.5954 -0.948566 0.648254 0.511702
6167 1 -8.93103 -6.69536 -10.7717 17.6701 19.9058 -10.7717 -0.720518 -0.313092 0.161776
14945 1 -10.4715 -9.80237 -13.1619 -10.4715 16.7988 -13.1619 -0.506723 -1.6073 1.37529
12454 1 -12.7097 -8.22751 -8.50843 -12.7097 -61.4298 -35.1096 0.61759 0.704511 -1.35081
5573 1 -11.0123 -9.78792 -9.02895 15.5888 16.8132 -9.02895 -2.32483 0.137511 2.23008
2257 1 -10.8431 -8.98112 -7.67057 -10.8431 -8.98112 18.9306 2.25491 -0.73601 -0.281347
14802 1 -10.3171 -8.43476 -8.76303 16.284 -8.43476 -8.76303 -0.481684 0.643341 -0.987512
9607 1 -8.34648 -8.12029 -10.1163 18.2547 -34.7214 43.086 1.69809 0.142969 -1.62065
3869 1 -7.98916 -7.09265 -8.08188 -7.98916 19.5085 -8.08188 0.253275 0.439658 0.558744
14710 1 -9.24638 -8.37541 -9.17478 17.3548 -34.9766 17.4264 -0.110005 0.601373 0.372064
2555 1 -7.59673 -10.0897 -7.27634 -7.59673 -10.0897 72.5271 0.0616964 -0.0818818 0.105796
14801 1 -10.0358 -7.60665 -9.27452 16.5654 -7.60665 -9.27452 0.702968 -1.03654 -0.106437
5145 1 -9.00799 -7.57267 -12.9724 -9.00799 19.0285 40.2299 1.0025 -2.23651 0.765622
6828 1 -11.6085 -8.12473 -10.3048 14.9926 45.0776 16.2963 -0.881463 -2.23285 0.632332
1185 1 -9.4989 -7.83677 -8.1436 17.1022 -34.4379 -8.1436 0.202395 -1.27303 0.748795
11947 1 -9.20901 -7.36654 -9.92914 -9.20901 -7.36654 -9.92914 -0.860047 -0.182588 -1.13627
8425 1 -8.4184 -7.77097 -6.8744 -35.0196 -34.3721 -33.4755 -2.76877 -0.135421 1.3669
9272 1 -13.0581 -12.7452 -10.5252 -66.2604 -12.7452 16.0759 0.0840238 -1.21094 -1.1316
7914 1 -10.6974 -7.80271 -10.3943 -10.6974 -61.005 16.2069 2.08488 0.233355 1.8552
3870 1 -7.44563 -7.51918 -7.4336 -7.44563 19.082 -7.4336 0.529967 1.15583 -0.281001
3283 1 -10.4609 -13.3654 -10.0914 16.1402 -13.3654 -10.0914 -0.0142602 -0.898997 -1.16173
8876 1 -12.3209 -11.8158 -10.0532 14.2802 -38.4169 16.548 -0.711684 0.613055 -1.4989
2068 1 -13.0539 -9.46216 -7.74959 13.5472 -36.0633 18.8516 -0.657509 0.800697 0.49636
15897 1 -12.5994 -7.13016 -6.72154 -39.2005 -7.13016 19.8796 0.986448 1.27909 0.530618
12962 1 -7.95519 -12.4328 -7.33548 18.646 -12.4328 19.2657 2.13244 0.127345 -0.502686
11863 1 -13.0054 -7.6245 -11.3759 13.5958 -87.4279 15.2252 -0.0380869 0.463981 -1.48284
566 1 -6.91745 -11.9183 -7.67086 19.6837 14.6828 -34.272 2.47524 -0.272035 -0.983329
2635 1 -8.88254 -12.827 -10.483 44.3198 40.3753 16.1181 0.67571 0.111079 -1.99864
12306 1 -7.63009 -8.90415 -6.95518 18.9711 -8.90415 -6.95518 -0.558462 0.135612 -1.50467
11466 1 -12.712 -7.08664 -8.83325 -12.712 -7.08664 -35.4344 0.153013 -1.25029 1.40542
6205 1 -6.92289 -10.8104 -10.0409 -33.524 15.7907 16.5602 0.280677 -0.646443 -1.03408
15 1 -10.0916 -12.1118 -7.80692 -10.0916 14.4893 -7.80692 -1.24693 -0.147746 -0.607468
16 1 -10.8708 -12.2552 -7.24375 -10.8708 14.3459 -7.24375 0.896824 0.799382 -0.298529
11261 1 -11.6243 -10.4488 -7.36139 14.9769 42.7535 -7.36139 0.737707 0.0586053 0.434633
3472 1 -9.72133 -11.3137 -6.98167 -9.72133 41.8886 19.6195 -1.01562 0.785498 -0.598194
3471 1 -9.40235 -12.2039 -6.99865 -9.40235 40.9984 19.6025 -0.762501 -2.02653 1.21561
8426 1 -8.86269 -7.33371 -7.54886 -35.4638 -33.9349 -34.15 -1.03358 -0.083954 -0.31555
6337 1 -9.32545 -9.84136 -7.42059 17.2757 -36.4425 -7.42059 -1.33797 0.426144 0.812828
8360 1 -13.1748 -7.53825 -7.53096 13.4263 -7.53825 19.0702 -0.37319 -0.092823 -1.23378
6206 1 -6.95094 -10.4407 -10.885 -33.5521 16.1605 15.7161 -0.507705 -0.0666555 0.143008
4610 1 -7.25302 -6.76695 -12.6874 19.3481 19.8342 -12.6874 -1.92755 0.0349878 1.37693
1974 1 -12.4657 -6.70892 -11.2589 -39.0669 -33.3101 15.3422 -0.662308 -0.902459 1.554
11262 1 -11.2733 -10.0485 -8.12942 15.3279 43.1538 -8.12942 0.635024 -0.841819 -0.396752
15452 1 -7.75163 -13.1735 -12.4778 72.0518 -13.1735 14.1233 -0.297376 0.089928 -0.304885
6338 1 -9.85386 -9.03277 -7.29474 16.7473 -35.6339 -7.29474 0.216916 1.95295 1.16296
6168 1 -8.03896 -7.08069 -10.9271 18.5622 19.5205 -10.9271 0.194273 0.602917 -1.23784
9857 1 -8.76871 -11.6058 -8.75717 -8.76871 41.5965 -8.75717 1.46518 -0.347391 -0.403749
5877 1 -11.111 -6.81763 -11.1048 15.4902 -33.4188 -11.1048 0.124552 0.132378 -0.0569881
7589 1 -7.18087 -10.7038 -8.3445 -60.3832 42.4985 -34.9456 -0.201118 -1.0972 -0.371421
14169 1 -11.8889 -7.92416 -7.40605 14.7122 -7.92416 -34.0072 0.46747 0.425837 -0.302323
602 1 -12.0641 -9.50814 -7.46387 67.7393 -9.50814 19.1373 1.83077 0.36387 0.615351
2258 1 -11.0865 -8.2223 -8.15183 -11.0865 -8.2223 18.4493 -0.192255 1.49405 0.819236
4355 1 -9.59544 -8.08078 -6.76636 43.6069 18.5204 -6.76636 -1.90243 0.0411894 0.748287
15448 1 -13.239 -13.1039 -7.63683 13.3621 -13.1039 18.9643 0.837637 0.610131 0.133321
12109 1 -12.5061 -9.46337 -9.55844 14.0951 17.1378 -9.55844 -0.994045 -0.261394 -2.01965
11669 1 -10.965 -7.08425 -7.77924 -37.5661 -7.08425 -34.3804 -0.395172 -0.0793188 -0.26531
1134 1 -11.1754 -7.20378 -8.78722 15.4257 -33.8049 17.8139 -1.31474 0.575515 0.355626
15712 1 -12.7011 -8.31248 -13.2627 13.9001 18.2887 13.3384 1.6807 -0.104142 0.596411
12305 1 -7.26348 -9.0075 -7.87499 19.3377 -9.0075 -7.87499 0.890678 0.136638 0.167845
12202 1 -7.21026 -7.36415 -10.4785 -33.8114 72.4393 16.1226 -1.29311 -0.0320466 0.667034
7058 1 -8.61938 -11.5742 -6.89546 -35.2205 -38.1753 -6.89546 0.832284 -0.922069 -1.24751
8312 1 -10.21 -6.88379 -8.43643 42.9923 -60.0861 -35.0376 3.1029 -0.925709 -0.785875
8281 1 -12.5413 -13.2163 -6.83761 -39.1424 -39.8174 -6.83761 -0.0709718 0.777448 -1.19457
2422 1 -11.0956 -7.5869 -6.92536 42.1067 -34.188 -33.5265 -0.580939 -0.985978 -0.181159
9377 1 -10.9983 -11.3928 -6.58014 15.6029 -64.5951 20.021 -1.81558 1.06493 1.38493
601 1 -11.5534 -9.00922 -6.75086 68.25 -9.00922 19.8503 -0.0280585 1.42701 1.22001
3364 1 -9.04434 -11.231 -13.1245 -9.04434 41.9713 13.4767 0.139883 0.308893 0.728824
14946 1 -11.3161 -9.50311 -12.9804 -11.3161 17.098 -12.9804 1.27491 1.02096 0.174416
4609 1 -7.33805 -7.64404 -13.0792 19.2631 18.9571 -13.0792 -0.674635 -0.141504 -0.633251
3851 1 -11.0082 -12.7379 -1.94034 -11.0082 -39.339 24.6608 -0.234311 0.513433 -0.739545
3751 1 -12.2937 -10.1677 -3.23499 14.3074 -10.1677 -3.23499 0.956309 1.3963 0.997653
7683 1 -6.80671 -10.1808 -6.33848 19.7944 16.4203 20.2627 1.19985 0.05846 -0.357174
11055 1 -10.5717 -9.16404 -5.86271 16.0295 17.4371 -5.86271 2.67365 -1.84533 0.569454
2771 1 -9.61073 -11.7882 -5.58294 43.5916 14.8129 -5.58294 0.169033 0.355074 0.737432
7206 1 -7.98624 -13.1267 -5.57014 -7.98624 -13.1267 -32.1713 1.72716 -0.601219 2.55847
990 1 -11.7763 -7.70879 -3.89851 14.8249 -7.70879 22.7026 1.9132 0.181617 0.923641
14719 1 -8.07533 -6.78952 -0.608379 -34.6765 46.4128 -53.8107 0.899123 0.184211 -0.227715
13520 1 -8.59368 -12.9083 -1.37058 -61.796 -12.9083 -27.9717 -0.137032 -0.270823 1.1495
9423 1 -8.53693 -12.3342 -6.1702 -8.53693 14.267 20.431 -0.48862 -0.303372 -0.845418
4263 1 -13.1777 -10.4206 -5.37042 13.4234 16.1806 21.2307 1.60525 1.69291 0.163415
11124 1 -12.7535 -11.8047 -5.23841 -39.3547 -11.8047 21.3627 -0.864781 -0.1355 0.181031
14882 1 -9.98035 -10.4104 -4.48606 43.2219 42.7919 -4.48606 0.515464 -0.100455 -0.000589303
12655 1 -9.80563 -12.8566 -5.89311 -9.80563 -39.4578 -32.4943 -1.58375 -2.11415 1.80495
13075 1 -12.2791 -7.63859 -0.984312 -38.8802 -60.8409 25.6168 0.156684 -0.796122 -0.173231
4924 1 -12.9598 -7.93334 -1.75584 13.6413 -7.93334 24.8453 0.304367 1.42205 2.30308
5101 1 -9.88221 -13.0945 -0.23955 -9.88221 13.5066 -0.23955 -1.44985 -0.134955 -0.23688
12656 1 -8.99007 -12.8848 -5.3575 -8.99007 -39.4859 -31.9586 0.728727 -0.0982962 -1.93397
14729 1 -12.7326 -8.8904 -6.24701 13.8685 44.3119 -59.4493 -0.217123 -0.0633831 -0.707596
12608 1 -11.5889 -9.25913 -5.73126 15.0123 17.342 20.8699 -0.821625 -0.956896 -1.30943
234 1 -12.0013 -11.7438 -4.14247 41.201 41.4585 -4.14247 0.940939 -0.42051 0.657645
807 1 -8.95582 -7.87379 -5.90564 44.2465 45.3285 47.2966 0.384 -1.55122 1.45607
5102 1 -9.00052 -12.7025 -0.317635 -9.00052 13.8987 -0.317635 -1.80419 -0.361026 1.15468
7301 1 -7.5801 -11.0293 -6.2102 19.021 -11.0293 -6.2102 -2.22122 1.20464 -2.21943
11056 1 -9.75801 -9.58877 -6.32346 16.8431 17.0124 -6.32346 -1.76642 -1.65141 0.0972016
5974 1 -8.43175 -11.1759 -5.57626 -8.43175 -37.777 21.0249 -2.05903 -0.702992 0.0405825
4753 1 -11.1518 -12.583 -4.87566 -11.1518 40.6193 21.7255 0.842514 -0.569542 -0.115291
5973 1 -8.8414 -10.7021 -6.24531 -8.8414 -37.3032 20.3558 -0.302889 -1.53632 -1.08693
12466 1 -10.8362 -6.83338 -5.36096 -10.8362 -6.83338 -31.9621 0.106339 -0.855651 0.439575
6672 1 -12.8299 -7.83695 -5.91833 13.7712 -7.83695 20.6828 0.384459 0.916454 0.270107
923 1 -11.2582 -8.32103 -5.73336 15.3429 18.2801 20.8678 0.58138 0.557707 -1.82368
924 1 -11.9714 -8.12336 -6.39116 14.6297 18.4778 20.21 -1.43391 -1.69916 0.0710562
5572 1 -10.3743 -12.5299 -3.12077 -10.3743 -12.5299 -56.3231 -1.50527 -0.0340639 -0.15543
11433 1 -7.98825 -8.61334 -5.29102 18.6129 17.9878 -5.29102 0.214903 -0.758039 -2.14064
11434 1 -8.51928 -7.8134 -5.0351 18.0819 18.7878 -5.0351 2.1384 0.658601 -0.862365
8458 1 -7.95206 -10.146 -0.236937 45.2502 -10.146 26.3642 0.291514 0.473804 -0.891742
13892 1 -6.8008 -12.4061 -2.99848 19.8004 -12.4061 -29.5996 0.208392 -0.798758 -0.469702
12115 1 -8.1524 -11.6761 -4.5239 -8.1524 -38.2773 -4.5239 0.329093 -0.523316 -1.96877
12607 1 -12.0726 -9.51582 -4.93235 14.5285 17.0853 21.6688 -0.466656 -1.48913 0.362751
2242 1 -12.5861 -10.8976 -4.30871 14.0151 15.7035 22.2924 -0.535759 -0.682864 -0.326112
4228 1 -13.0099 -6.86923 -1.67625 40.1924 -6.86923 24.9249 0.307886 -0.173604 -0.00974083
2047 1 -11.4347 -10.5288 -6.40747 -11.4347 -10.5288 -33.0086 0.224065 -1.34224 0.168783
3344 1 -9.72859 -13.2374 -2.3773 -9.72859 -39.8386 -2.3773 -0.449206 0.0315817 -1.04775
2772 1 -10.3532 -11.3371 -5.1176 42.8491 15.264 -5.1176 0.194325 0.603555 0.20092
10936 1 -9.34172 -7.21855 -5.14932 -9.34172 19.3826 -31.7505 -0.812415 0.624184 1.23568
3501 1 -7.83997 -12.728 -2.94444 -7.83997 -39.3291 -2.94444 1.08702 0.37584 1.31929
4264 1 -12.2014 -10.4005 -5.25739 14.3997 16.2006 21.3438 -0.54623 0.140391 -1.74742
8718 1 -8.27442 -9.8698 -3.67142 18.3267 16.7313 -3.67142 0.522007 1.85648 1.15727
10194 1 -6.6689 -9.76549 -4.25235 19.9322 96.6391 22.3488 1.58852 -1.02302 0.565002
6171 1 -7.03024 -8.60598 -5.65544 46.1721 -8.60598 -32.2566 1.13864 1.11762 0.749307
233 1 -12.3987 -12.5982 -4.42317 40.8036 40.6041 -4.42317 -0.774983 0.233366 -1.03432
4754 1 -11.9344 -12.7117 -5.37585 -11.9344 40.4906 21.2253 -1.51057 -0.606671 -0.675444
12899 1 -6.97051 -8.68931 -1.14006 19.6306 -35.2905 -27.7412 -0.398462 0.580469 0.69242
14032 1 -9.705 -6.9051 -3.7722 16.8961 19.696 -3.7722 0.992757 -0.22106 -0.136452
14798 1 -10.1416 -12.8241 -4.44237 43.0607 -39.4253 22.1588 -0.761731 -1.89005 -0.0481849
8969 1 -12.7083 -8.55902 -3.31006 13.8928 -8.55902 -29.9112 -0.582464 -0.159646 0.553814
6964 1 -9.18724 -12.1396 -4.50082 44.0151 -38.7408 22.1003 1.1129 -0.973242 1.68482
15717 1 -7.1355 -12.7401 -3.89896 -33.7366 -12.7401 -3.89896 -0.467685 -1.42221 2.1658
2204 1 -7.73591 -10.7206 -2.98085 -7.73591 15.8806 23.6203 -0.272132 0.232771 1.00804
6649 1 -12.5835 -7.12208 -0.0172274 -39.1846 19.4791 -0.0172274 -0.415662 -0.154827 1.11733
4948 1 -7.1951 -12.5837 -1.88568 -7.1951 -39.1848 24.7155 -1.53601 -0.890912 0.425431
5302 1 -11.4775 -10.7069 -4.66389 41.7248 -37.3081 -4.66389 0.0917963 -0.426991 -0.626532
14881 1 -9.91928 -9.57417 -4.97972 43.283 43.6281 -4.97972 1.89804 0.687153 1.55885
5301 1 -11.5248 -11.4324 -5.31704 41.6775 -38.0336 -5.31704 1.727 0.0579107 0.718801
13416 1 -11.441 -9.90801 -3.98002 15.1601 16.6931 -57.1823 -1.25445 1.83334 -1.43384
2759 1 -10.0693 -11.5418 -4.14723 -36.6704 15.0594 -4.14723 -0.1576 0.617611 0.25247
6963 1 -8.99061 -11.1262 -4.3945 44.2117 -37.7273 22.2066 -0.0365655 1.05083 -0.849556
2760 1 -11.0283 -11.725 -4.37588 -37.6294 14.8761 -4.37588 0.395077 -0.412789 -0.631863
3343 1 -9.19617 -13.1865 -3.21807 -9.19617 -39.7877 -3.21807 0.592994 -0.482202 0.490134
11841 1 -9.02144 -10.0324 -4.55651 17.5797 -10.0324 -4.55651 1.14456 -2.74366 2.46729
12116 1 -8.03317 -12.6661 -4.58618 -8.03317 -39.2673 -4.58618 0.470516 0.560538 2.32589
6671 1 -12.159 -8.03762 -5.25075 14.4422 -8.03762 21.3504 -0.899929 1.49381 -0.386303
13415 1 -11.0686 -9.7579 -4.85858 15.5325 16.8433 -58.0609 0.189023 0.108625 -1.38027
1019 1 -11.926 -9.06205 -3.59175 -38.5271 -35.6632 23.0094 0.426755 0.221237 -0.172221
1020 1 -10.993 -8.91579 -3.4039 -37.5941 -35.5169 23.1972 0.249629 -0.18038 0.666181
5093 1 -8.3308 -8.97082 -6.15932 -8.3308 17.6303 -32.7605 -0.396434 -0.482643 1.22718
6753 1 -13.0369 -12.9103 -5.87147 13.5642 40.292 -5.87147 -0.00589108 -0.435728 -0.134036
8572 1 -7.89946 -8.75524 -4.04046 18.7017 17.8459 -30.6416 -0.330606 2.38883 1.83522
1438 1 -13.1001 -10.5852 -0.687078 -13.1001 -10.5852 52.5152 0.582734 1.09636 -0.0788697
7860 1 -11.3496 -7.7214 -2.91705 15.2515 18.8797 -2.91705 2.32099 -1.69416 1.08531
3141 1 -11.2427 -7.83094 -4.87046 -37.8439 -7.83094 -4.87046 -0.218397 -0.0369878 1.44593
3142 1 -11.2926 -8.69681 -4.48675 -37.8938 -8.69681 -4.48675 0.1938 0.193578 2.41764
3064 1 -10.2107 -10.4911 -6.36121 -10.2107 69.3123 -6.36121 -1.12137 2.11491 0.314109
13687 1 -8.34956 -6.96212 -5.53626 18.2516 46.2402 47.666 -1.6828 1.84673 1.67296
8571 1 -7.76019 -9.52618 -4.63816 18.841 17.075 -31.2393 1.47241 0.214642 -0.739233
9918 1 -7.33638 -7.83683 -0.535385 -7.33638 -7.83683 -0.535385 -1.57747 0.372552 0.633612
3652 1 -7.27502 -7.88769 -4.77817 45.9273 18.7135 -4.77817 0.364708 1.14417 0.219009
2288 1 -9.07549 -7.35873 -0.661502 44.1268 -7.35873 -0.661502 -1.47677 0.467057 -1.64694
8815 1 -9.99144 -10.8776 -0.46006 -63.1937 15.7235 -0.46006 -0.961451 -1.79105 -0.223278
7917 1 -6.91177 -8.81226 -4.45885 19.6894 17.7889 -4.45885 -2.561 -1.58379 -0.459429
3186 1 -10.939 -7.04302 -4.12602 15.6622 -7.04302 -30.7272 -0.356828 0.061827 -0.213695
10061 1 -12.4293 -9.94427 -6.28783 14.1718 43.258 20.3133 -0.388318 1.84128 -1.74296
10935 1 -10.0968 -7.42103 -4.60782 -10.0968 19.1801 -31.209 -2.15568 -0.0674528 -1.32952
12465 1 -10.423 -7.57404 -5.79692 -10.423 -7.57404 -32.3981 0.155593 1.93966 1.39511
6317 1 -10.4229 -8.2332 -0.476026 -10.4229 -8.2332 26.1251 -0.255789 0.408897 -1.07142
11866 1 -12.431 -6.77656 -2.55497 -12.431 19.8246 24.0462 -1.65065 -0.434016 1.85214